% Model:              thermal_sim_1064nm_10um.mph
% Version:            COMSOL 5.4.0.388
% Date:               Jan 20 2020, 16:08
% Dimension:          3
% Nodes:              59
% Expressions:        84
% Description:        Temperature
% Length unit:        m
% X                       Y                        Z                        T (K) @ 1: p=1E-4 Pa, powfac=0.5 T (K) @ 2: p=1E-4 Pa, powfac=1 T (K) @ 3: p=1E-4 Pa, powfac=1.5 T (K) @ 4: p=2.1544E-4 Pa, powfac=0.5 T (K) @ 5: p=2.1544E-4 Pa, powfac=1 T (K) @ 6: p=2.1544E-4 Pa, powfac=1.5 T (K) @ 7: p=4.6416E-4 Pa, powfac=0.5 T (K) @ 8: p=4.6416E-4 Pa, powfac=1 T (K) @ 9: p=4.6416E-4 Pa, powfac=1.5 T (K) @ 10: p=0.001 Pa, powfac=0.5 T (K) @ 11: p=0.001 Pa, powfac=1 T (K) @ 12: p=0.001 Pa, powfac=1.5 T (K) @ 13: p=0.0021544 Pa, powfac=0.5 T (K) @ 14: p=0.0021544 Pa, powfac=1 T (K) @ 15: p=0.0021544 Pa, powfac=1.5 T (K) @ 16: p=0.0046416 Pa, powfac=0.5 T (K) @ 17: p=0.0046416 Pa, powfac=1 T (K) @ 18: p=0.0046416 Pa, powfac=1.5 T (K) @ 19: p=0.01 Pa, powfac=0.5 T (K) @ 20: p=0.01 Pa, powfac=1 T (K) @ 21: p=0.01 Pa, powfac=1.5 T (K) @ 22: p=0.021544 Pa, powfac=0.5 T (K) @ 23: p=0.021544 Pa, powfac=1 T (K) @ 24: p=0.021544 Pa, powfac=1.5 T (K) @ 25: p=0.046416 Pa, powfac=0.5 T (K) @ 26: p=0.046416 Pa, powfac=1 T (K) @ 27: p=0.046416 Pa, powfac=1.5 T (K) @ 28: p=0.1 Pa, powfac=0.5 T (K) @ 29: p=0.1 Pa, powfac=1 T (K) @ 30: p=0.1 Pa, powfac=1.5 T (K) @ 31: p=0.21544 Pa, powfac=0.5 T (K) @ 32: p=0.21544 Pa, powfac=1 T (K) @ 33: p=0.21544 Pa, powfac=1.5 T (K) @ 34: p=0.46416 Pa, powfac=0.5 T (K) @ 35: p=0.46416 Pa, powfac=1 T (K) @ 36: p=0.46416 Pa, powfac=1.5 T (K) @ 37: p=1 Pa, powfac=0.5 T (K) @ 38: p=1 Pa, powfac=1 T (K) @ 39: p=1 Pa, powfac=1.5 T (K) @ 40: p=2.1544 Pa, powfac=0.5 T (K) @ 41: p=2.1544 Pa, powfac=1 T (K) @ 42: p=2.1544 Pa, powfac=1.5 T (K) @ 43: p=4.6416 Pa, powfac=0.5 T (K) @ 44: p=4.6416 Pa, powfac=1 T (K) @ 45: p=4.6416 Pa, powfac=1.5 T (K) @ 46: p=10 Pa, powfac=0.5 T (K) @ 47: p=10 Pa, powfac=1 T (K) @ 48: p=10 Pa, powfac=1.5 T (K) @ 49: p=21.544 Pa, powfac=0.5 T (K) @ 50: p=21.544 Pa, powfac=1 T (K) @ 51: p=21.544 Pa, powfac=1.5 T (K) @ 52: p=46.416 Pa, powfac=0.5 T (K) @ 53: p=46.416 Pa, powfac=1 T (K) @ 54: p=46.416 Pa, powfac=1.5 T (K) @ 55: p=100 Pa, powfac=0.5 T (K) @ 56: p=100 Pa, powfac=1 T (K) @ 57: p=100 Pa, powfac=1.5 T (K) @ 58: p=215.44 Pa, powfac=0.5 T (K) @ 59: p=215.44 Pa, powfac=1 T (K) @ 60: p=215.44 Pa, powfac=1.5 T (K) @ 61: p=464.16 Pa, powfac=0.5 T (K) @ 62: p=464.16 Pa, powfac=1 T (K) @ 63: p=464.16 Pa, powfac=1.5 T (K) @ 64: p=1000 Pa, powfac=0.5 T (K) @ 65: p=1000 Pa, powfac=1 T (K) @ 66: p=1000 Pa, powfac=1.5 T (K) @ 67: p=2154.4 Pa, powfac=0.5 T (K) @ 68: p=2154.4 Pa, powfac=1 T (K) @ 69: p=2154.4 Pa, powfac=1.5 T (K) @ 70: p=4641.6 Pa, powfac=0.5 T (K) @ 71: p=4641.6 Pa, powfac=1 T (K) @ 72: p=4641.6 Pa, powfac=1.5 T (K) @ 73: p=10000 Pa, powfac=0.5 T (K) @ 74: p=10000 Pa, powfac=1 T (K) @ 75: p=10000 Pa, powfac=1.5 T (K) @ 76: p=21544 Pa, powfac=0.5 T (K) @ 77: p=21544 Pa, powfac=1 T (K) @ 78: p=21544 Pa, powfac=1.5 T (K) @ 79: p=46416 Pa, powfac=0.5 T (K) @ 80: p=46416 Pa, powfac=1 T (K) @ 81: p=46416 Pa, powfac=1.5 T (K) @ 82: p=1E5 Pa, powfac=0.5 T (K) @ 83: p=1E5 Pa, powfac=1 T (K) @ 84: p=1E5 Pa, powfac=1.5 a
-6.177737394988288E-6     0                        0                        1071.236398023725        1071.2363980237164       1071.2363980227422       1070.0592254679198       1070.05922546802         1070.0592254667126       1068.2173480237932       1068.2173480237293       1068.2173480238446       1064.0583634287998       1064.0583634293073       1064.0583634293896       1053.6468978556775       1053.646897854856        1053.6468978517541       1033.4556291861586       1033.4556291861543       1033.4556291861702       987.9417229705147        987.9417229703109        987.9417229703103        888.9672069057817        888.967206905604         888.9672069056967        698.6643128890261        698.6643128890254        698.6643128890252        500.2402520098742        500.2402520098742        500.2402520098742        390.514233600896         390.51423360089865       390.51423360089575       339.34258461267353       339.34258461267393       339.3425846126732        315.74956573686757       315.74956573686757       315.74956573686757       304.844565016229         304.84456501622896       304.84456501622896       299.7935505671198        299.7935505671198        299.7935505671198        297.45142383623033       297.45142383623033       297.45142383623033       296.36481496913444       296.36481496913444       296.36481496913444       295.8605661227763        295.8605661227763        295.8605661227763        295.62653835082534       295.62653835082534       295.62653835082534       295.5179174157984        295.5179174157984        295.5179174157984        295.4675011505315        295.4675011505315        295.4675011505315        295.4441002316133        295.4441002316133        295.4441002316133        295.4332385386009        295.4332385386009        295.4332385386009        295.42819699837145       295.42819699837145       295.42819699837145       295.4258569250732        295.4258569250732        295.4258569250732        295.424770759778         295.424770759778         295.424770759778         295.4242666066181        295.4242666066181        295.4242666066181        295.42403259947423       295.42403259947423       295.42403259947423
-5.000000000000003E-6     0                        0                        1309.5108645647715       1309.5108645647597       1309.5108645634525       1307.9570836836642       1307.9570836837975       1307.9570836820642       1305.5309726540154       1305.5309726539294       1305.5309726540834       1300.0534318045636       1300.0534318052414       1300.0534318053515       1286.319756654064        1286.3197566529761       1286.3197566488675       1259.6835752446166       1259.683575244611        1259.6835752446323       1199.5709048805174       1199.5709048802462       1199.5709048802453       1068.6444444936344       1068.644444493398        1068.6444444935212       817.1919084788811        817.1919084788802        817.1919084788798        557.9304899332218        557.9304899332218        557.9304899332218        416.7891907247415        416.78919072474577       416.78919072474116       351.6436935011798        351.64369350118045       351.64369350117926       321.7315250592335        321.7315250592335        321.7315250592335        307.9316451532115        307.9316451532115        307.9316451532115        301.54516012358073       301.5451601235807        301.54516012358073       298.58491626591683       298.58491626591683       298.58491626591683       297.2117780099403        297.2117780099403        297.2117780099403        296.5746144344026        296.5746144344026        296.5746144344026        296.2789103760437        296.2789103760437        296.2789103760437        296.14166555552134       296.14166555552134       296.14166555552134       296.0779640578341        296.0779640578341        296.0779640578341        296.0483968521313        296.0483968521313        296.0483968521313        296.03467305934305       296.03467305934305       296.03467305934305       296.0283030580502        296.0283030580502        296.0283030580502        296.02534636946575       296.02534636946575       296.02534636946575       296.0239739970778        296.0239739970778        296.0239739970778        296.02333699843314       296.02333699843314       296.02333699843314       296.0230413298945        296.0230413298945        296.0230413298945
-6.336126535878585E-6     0                        0                        1049.1758549498834       1049.1758549498747       1049.175854948931        1048.0338134228207       1048.0338134229185       1048.0338134216493       1046.2471032441533       1046.2471032440912       1046.247103244203        1042.2123042387757       1042.2123042392677       1042.2123042393475       1032.111771955094        1032.1117719542963       1032.1117719512854       1012.5249983007454       1012.5249983007412       1012.5249983007566       968.3732862904578        968.3732862902601        968.3732862902596        872.3566146773376        872.3566146771653        872.356614677255         687.6565262920068        687.6565262920061        687.656526292006         494.8207708930039        494.8207708930039        494.8207708930039        388.0241834541213        388.02418345412394       388.02418345412116       338.17261047154415       338.1726104715445        338.1726104715438        315.17966153058615       315.17966153058615       315.1796615305862        304.55023880693824       304.55023880693824       304.55023880693824       299.62649675427906       299.62649675427906       299.62649675427906       297.3433074215941        297.3433074215941        297.3433074215941        296.28402541908076       296.2840254190807        296.28402541908076       295.7924542487044        295.7924542487044        295.7924542487044        295.5643095704751        295.5643095704751        295.5643095704751        295.4584190323909        295.4584190323909        295.4584190323909        295.40927004196044       295.40927004196044       295.40927004196044       295.38645732631034       295.38645732631034       295.38645732631034       295.37586865013935       295.37586865013935       295.37586865013935       295.3709538324707        295.3709538324707        295.3709538324707        295.36867257843875       295.36867257843875       295.36867257843875       295.3676137145992        295.3676137145992        295.3676137145992        295.36712223364617       295.36712223364617       295.36712223364617       295.3668941084183        295.3668941084183        295.3668941084183
-7.386343189762606E-6     0                        0                        917.4593475907596        917.4593475907528        917.4593475899873        916.5267414780129        916.5267414780931        916.5267414770519        915.0696845604817        915.069684560431         915.0696845605222        911.7767923871494        911.7767923875501        911.7767923876153        903.5311822718087        903.5311822711543        903.5311822686828        887.5513330325977        887.5513330325942        887.5513330326067        851.5184323428282        851.5184323426664        851.518432342666         773.1017928818055        773.1017928816642        773.1017928817379        621.70205197077          621.7020519707695        621.7020519707694        462.19625235812015       462.19625235812015       462.19625235812015       372.98562783961773       372.98562783961967       372.9856278396176        331.0970993331838        331.0970993331841        331.09709933318356       311.730997269162         311.730997269162         311.730997269162         302.7686865126158        302.7686865126158        302.7686865126158        298.6151947076047        298.6151947076047        298.6151947076047        296.68875959934445       296.68875959934445       296.68875959934445       295.7949040200085        295.7949040200085        295.7949040200085        295.38008167666624       295.38008167666624       295.38008167666624       295.18755304783986       295.18755304783986       295.18755304783986       295.0981923790502        295.0981923790502        295.0981923790502        295.05671552185714       295.0567155218571        295.0567155218571        295.03746381908655       295.03746381908655       295.03746381908655       295.0285280023229        295.0285280023229        295.0285280023229        295.02438037050774       295.0243803705078        295.0243803705078        295.0224552118459        295.0224552118459        295.0224552118459        295.02156163267216       295.02156163267216       295.02156163267216       295.02114687002984       295.02114687002984       295.02114687002984       295.0209543542798        295.0209543542798        295.0209543542798
-6.6146022076737895E-6    0                        0                        1003.5891913625447       1003.5891913625366       1003.5891913616557       1002.5197062096042       1002.5197062096955       1002.5197062085065       1000.846708709213        1000.846708709155        1000.8467087092594       997.0679764361112        997.0679764365711        997.0679764366458        987.6092600460059        987.6092600452585        987.6092600424364        969.2698945543614        969.2698945543573        969.2698945543718        927.9315751404603        927.9315751402753        927.9315751402746        838.031760475991         838.0317604758295        838.0317604759135        664.934955905407         664.9349559054064        664.9349559054062        483.6602045916556        483.6602045916556        483.6602045916556        382.90502565514754       382.90502565514987       382.90502565514737       335.76900731090524       335.7690073109056        335.76900731090495       314.00922276559436       314.0092227655945        314.00922276559436       303.9458530285347        303.9458530285347        303.94585302853466       299.2834795334265        299.2834795334265        299.2834795334265        297.12131315831203       297.12131315831203       297.12131315831203       296.11814207086286       296.11814207086286       296.11814207086286       295.65260175542835       295.65260175542835       295.65260175542835       295.43653662180793       295.43653662180793       295.43653662180793       295.3362522859547        295.3362522859547        295.3362522859547        295.2897053293837        295.2897053293837        295.2897053293837        295.2681003418531        295.2681003418531        295.2681003418531        295.2580722371683        295.2580722371683        295.2580722371683        295.2534176123885        295.2534176123885        295.2534176123885        295.2512571289073        295.2512571289073        295.2512571289073        295.25025432172924       295.25025432172924       295.25025432172924       295.2497888599602        295.2497888599602        295.2497888599602        295.2495728117648        295.2495728117648        295.2495728117648
-6.4146270171740945E-6    0                        0                        1036.3252708784162       1036.325270878408        1036.3252708774817       1035.203682521474        1035.20368252157         1035.2036825203236       1033.4490272074795       1033.4490272074186       1033.4490272075284       1029.4864117490445       1029.4864117495276       1029.486411749606        1019.5668031928255       1019.5668031920422       1019.5668031890845       1000.3316657891876       1000.3316657891836       1000.3316657891988       956.9730308598022        956.9730308596081        956.9730308596073        862.6806614501362        862.6806614499669        862.680661450055         681.2514633303502        681.2514633303497        681.2514633303495        491.6746798160405        491.6746798160405        491.6746798160405        386.58112615415496       386.5811261541574        386.5811261541548        337.4950503682245        337.49505036822484       337.49505036822416       314.84972245265357       314.84972245265357       314.84972245265357       304.37986638558095       304.37986638558095       304.3798663855809        299.5298024299383        299.5298024299383        299.5298024299383        297.28072868212956       297.28072868212956       297.28072868212956       296.2372639817528        296.23726398175273       296.2372639817528        295.75303074013806       295.75303074013806       295.75303074013806       295.52829120699556       295.52829120699556       295.52829120699556       295.4239810208701        295.4239810208701        295.4239810208701        295.3755655268668        295.3755655268668        295.3755655268668        295.35309326192123       295.35309326192123       295.35309326192123       295.3426626072075        295.3426626072075        295.3426626072075        295.3378211362225        295.3378211362225        295.3378211362225        295.3355739266236        295.3355739266236        295.3355739266236        295.33453086479244       295.33453086479244       295.33453086479244       295.3340467184782        295.3340467184782        295.3340467184782        295.3338219976873        295.3338219976873        295.3338219976873
-9.270434895560964E-6     0                        0                        760.6404042065074        760.6404042065025        760.6404042059414        759.9549975700846        759.9549975701442        759.9549975693701        758.8884732508347        758.8884732507973        758.8884732508645        756.4746771708949        756.4746771711901        756.4746771712382        750.4209447438293        750.4209447433421        750.420944741503         738.702823131756         738.7028231317535        738.7028231317628        712.2423288274134        712.2423288272934        712.242328827293         654.514280152485         654.5142801523795        654.5142801524345        542.2441080602996        542.2441080602993        542.2441080602991        422.37492675931696       422.37492675931696       422.374926759317         354.46962149151426       354.4696214915154        354.46962149151415       322.35421395653344       322.35421395653367       322.35421395653333       307.46269707584213       307.46269707584213       307.46269707584213       300.56210805318017       300.56210805318017       300.56210805318017       297.36221613477665       297.36221613477665       297.36221613477665       295.8776731706192        295.8776731706192        295.8776731706192        295.1887683255932        295.1887683255932        295.1887683255932        294.8690417539702        294.8690417539702        294.8690417539702        294.7206453599656        294.7206453599656        294.7206453599656        294.6517674843209        294.6517674843209        294.6517674843209        294.61979755801303       294.61979755801303       294.61979755801303       294.6049585085169        294.6049585085169        294.6049585085169        294.59807084820983       294.59807084820983       294.59807084820983       294.5948738830131        294.5948738830131        294.5948738830131        294.5933899839757        294.5933899839757        294.5933899839757        294.592701219219         294.592701219219         294.592701219219         294.5923815229738        294.5923815229738        294.5923815229738        294.5922331331292        294.5922331331292        294.5922331331292
-8.417040763018919E-6     0                        0                        822.7417076369514        822.7417076369456        822.7417076363046        821.9588642889111        821.9588642889788        821.9588642880994        820.7383939463358        820.7383939462933        820.7383939463698        817.9779264220408        817.9779264223775        817.9779264224322        811.0601937424946        811.0601937419414        811.0601937398528        797.6626508563949        797.6626508563919        797.6626508564027        767.4310394137412        767.4310394136048        767.4310394136045        701.5555994888698        701.5555994887503        701.5555994888126        573.8604807740732        573.8604807740728        573.8604807740726        438.28972662715495       438.28972662715495       438.28972662715495       361.8903948294473        361.8903948294487        361.89039482944713       325.8622165473279        325.8622165473281        325.8622165473277        309.17620874228254       309.17620874228254       309.17620874228254       301.4481474636469        301.4481474636469        301.4481474636469        297.86539550889887       297.86539550889887       297.86539550889887       296.2034097442488        296.2034097442488        296.2034097442488        295.43220053960505       295.43220053960505       295.43220053960505       295.074284029452         295.074284029452         295.074284029452         294.9081641017182        294.9081641017182        294.9081641017182        294.83106026503845       294.83106026503845       294.83106026503845       294.79527230967403       294.79527230967403       294.79527230967403       294.7786611147579        294.7786611147579        294.7786611147579        294.7709509031606        294.7709509031606        294.7709509031606        294.7673721447143        294.7673721447143        294.76737214471433       294.7657110332153        294.7657110332153        294.7657110332153        294.7649400137778        294.7649400137778        294.7649400137778        294.7645821383042        294.7645821383042        294.7645821383042        294.76441602723423       294.76441602723423       294.76441602723423
-7.936757855079336E-6     0                        0                        866.9992155566915        866.9992155566852        866.9992155559862        866.1464132851262        866.1464132851997        866.1464132842448        864.8154201284423        864.8154201283958        864.8154201284792        861.8062231622453        861.8062231626118        861.8062231626715        854.2681859933726        854.2681859927723        854.2681859905045        839.6643591388731        839.6643591388699        839.6643591388815        806.7228680983711        806.7228680982228        806.7228680982223        734.9895229638048        734.9895229636752        734.9895229637428        596.221781011657         596.2217810116566        596.2217810116564        449.4671855725384        449.4671855725384        449.4671855725384        367.0789974006956        367.0789974006972        367.07899740069547       328.3104734738262        328.31047347382645       328.310473473826         310.37108062680124       310.37108062680124       310.37108062680124       302.0657727064093        302.0657727064093        302.0657727064093        298.21608456012086       298.21608456012086       298.21608456012086       296.43041390222555       296.43041390222555       296.43041390222555       295.60184179344725       295.60184179344725       295.60184179344725       295.21730980702563       295.21730980702563       295.21730980702563       295.0388382292095        295.0388382292095        295.0388382292095        294.95600172968113       294.95600172968113       294.95600172968113       294.91755300816556       294.9175530081655        294.9175530081655        294.89970681659855       294.89970681659855       294.89970681659855       294.8914233749873        294.8914233749873        294.8914233749873        294.8875785477401        294.8875785477401        294.8875785477401        294.88579393825967       294.88579393825967       294.88579393825967       294.88496559618335       294.88496559618335       294.88496559618335       294.88458111390787       294.88458111390787       294.88458111390787       294.88440265305655       294.88440265305655       294.88440265305655
-9.485718993271238E-6     0                        0                        745.4835609888712        745.4835609888664        745.4835609883247        744.8218797800102        744.8218797800679        744.8218797793194        743.7928247633137        743.7928247632775        743.7928247633424        741.4634269841921        741.4634269844772        741.4634269845236        735.6200507573075        735.6200507568365        735.6200507550582        724.3107377181935        724.310737718191         724.3107377182001        698.7682847059519        698.768284705836         698.7682847058354        643.023906075858         643.0239060757558        643.0239060758092        534.5122421559641        534.5122421559638        534.5122421559637        418.4767960905912        418.4767960905912        418.4767960905912        352.65024084668136       352.65024084668255       352.65024084668124       321.49379643131516       321.49379643131533       321.49379643131505       307.0423432792713        307.0423432792713        307.0423432792713        300.3447297197236        300.3447297197236        300.3447297197236        297.2387630079876        297.2387630079876        297.2387630079876        295.79775360023535       295.79775360023535       295.79775360023535       295.12904169054264       295.12904169054264       295.12904169054264       294.8186849245585        294.8186849245585        294.8186849245585        294.67463697832466       294.67463697832466       294.67463697832466       294.6077773373636        294.6077773373636        294.6077773373636        294.5767441633068        294.5767441633068        294.5767441633068        294.5623399093746        294.5623399093746        294.5623399093746        294.5556540619303        294.5556540619303        294.5556540619303        294.5525507696734        294.55255076967336       294.5525507696734        294.5511103497           294.5511103497           294.5511103497           294.55044176612347       294.55044176612347       294.55044176612347       294.55013143714945       294.55013143714945       294.55013143714945       294.54998739520636       294.5499873952063        294.54998739520636
-9.454894737202247E-6     0                        0                        747.289352307022         747.2893523070172        747.2893523064733        746.6248718898402        746.624871889898         746.6248718891466        745.591403025353         745.5914030253166        745.5914030253819        743.2520529380903        743.2520529383767        743.2520529384233        737.383868518392         737.383868517919         737.3838685161336        726.026379999719         726.0263799997165        726.0263799997255        700.375719960566         700.3757199604495        700.3757199604491        644.3974361383524        644.39743613825          644.3974361383034        535.4411871891884        535.4411871891881        535.441187189188         418.94829388234473       418.94829388234473       418.9482938823448        352.8712117138434        352.87121171384456       352.8712117138433        321.5984762834929        321.5984762834931        321.5984762834928        307.09352348138884       307.09352348138884       307.09352348138884       300.3712057564858        300.3712057564858        300.3712057564858        297.2538015933304        297.2538015933304        297.2538015933304        295.8074897993223        295.8074897993223        295.8074897993223        295.13631813041206       295.13631813041206       295.13631813041206       294.8248199458793        294.8248199458793        294.8248199458793        294.68024226494856       294.68024226494856       294.68024226494856       294.61313675690985       294.61313675690985       294.61313675690985       294.5819894644798        294.5819894644798        294.5819894644798        294.5675322421407        294.5675322421407        294.5675322421407        294.5608218090798        294.5608218090798        294.5608218090798        294.55770710522074       294.5577071052207        294.55770710522074       294.5562613884573        294.5562613884573        294.5562613884573        294.55559034633006       294.55559034633006       294.55559034633006       294.55527887619814       294.55527887619814       294.55527887619814       294.55513430457654       294.5551343045765        294.55513430457654
-9.999999999999999E-6     0                        0                        715.355204445179         715.3552044451743        715.3552044446704        714.7402260560069        714.7402260560606        714.740226055363         713.7848129815625        713.7848129815288        713.7848129815893        711.6214624555702        711.6214624558356        711.6214624558788        706.1919934563823        706.1919934559432        706.1919934542852        695.6864543695713        695.6864543695689        695.6864543695773        671.949359404267         671.9493594041589        671.9493594041585        620.1075241936512        620.107524193556         620.1075241936056        519.0134484198553        519.013448419855         519.0134484198549        410.6101874538523        410.6101874538523        410.6101874538523        348.96349753104454       348.9634975310455        348.9634975310445        319.74728681104443       319.74728681104455       319.7472868110443        306.18843764694253       306.18843764694253       306.18843764694253       299.90299569020624       299.90299569020624       299.90299569020624       296.98785480139117       296.98785480139117       296.98785480139117       295.63531197449413       295.63531197449413       295.63531197449413       295.00763941523417       295.00763941523417       295.00763941523417       294.7163264139727        294.7163264139727        294.7163264139727        294.58111671812634       294.58111671812634       294.58111671812634       294.5183591962232        294.5183591962232        294.5183591962232        294.48923000686335       294.48923000686335       294.4892300068633        294.47570949350154       294.47570949350154       294.47570949350154       294.4694338397577        294.4694338397577        294.4694338397577        294.46652094204757       294.46652094204757       294.46652094204757       294.46516889528596       294.46516889528596       294.46516889528596       294.46454133089736       294.46454133089736       294.46454133089736       294.46425004133874       294.46425004133874       294.46425004133874       294.46411483670835       294.46411483670835       294.46411483670835