% Model:              thermal_sim.mph
% Version:            COMSOL 5.4.0.388
% Date:               Jan 13 2020, 16:13
% Dimension:          3
% Nodes:              39
% Expressions:        84
% Description:        Temperature
% Length unit:        m
% X                       Y                        Z                        T (K) @ 1: p=1E-4 Pa, powfac=0.01 T (K) @ 2: p=1E-4 Pa, powfac=0.1 T (K) @ 3: p=1E-4 Pa, powfac=1 T (K) @ 4: p=2.1544E-4 Pa, powfac=0.01 T (K) @ 5: p=2.1544E-4 Pa, powfac=0.1 T (K) @ 6: p=2.1544E-4 Pa, powfac=1 T (K) @ 7: p=4.6416E-4 Pa, powfac=0.01 T (K) @ 8: p=4.6416E-4 Pa, powfac=0.1 T (K) @ 9: p=4.6416E-4 Pa, powfac=1 T (K) @ 10: p=0.001 Pa, powfac=0.01 T (K) @ 11: p=0.001 Pa, powfac=0.1 T (K) @ 12: p=0.001 Pa, powfac=1 T (K) @ 13: p=0.0021544 Pa, powfac=0.01 T (K) @ 14: p=0.0021544 Pa, powfac=0.1 T (K) @ 15: p=0.0021544 Pa, powfac=1 T (K) @ 16: p=0.0046416 Pa, powfac=0.01 T (K) @ 17: p=0.0046416 Pa, powfac=0.1 T (K) @ 18: p=0.0046416 Pa, powfac=1 T (K) @ 19: p=0.01 Pa, powfac=0.01 T (K) @ 20: p=0.01 Pa, powfac=0.1 T (K) @ 21: p=0.01 Pa, powfac=1 T (K) @ 22: p=0.021544 Pa, powfac=0.01 T (K) @ 23: p=0.021544 Pa, powfac=0.1 T (K) @ 24: p=0.021544 Pa, powfac=1 T (K) @ 25: p=0.046416 Pa, powfac=0.01 T (K) @ 26: p=0.046416 Pa, powfac=0.1 T (K) @ 27: p=0.046416 Pa, powfac=1 T (K) @ 28: p=0.1 Pa, powfac=0.01 T (K) @ 29: p=0.1 Pa, powfac=0.1 T (K) @ 30: p=0.1 Pa, powfac=1 T (K) @ 31: p=0.21544 Pa, powfac=0.01 T (K) @ 32: p=0.21544 Pa, powfac=0.1 T (K) @ 33: p=0.21544 Pa, powfac=1 T (K) @ 34: p=0.46416 Pa, powfac=0.01 T (K) @ 35: p=0.46416 Pa, powfac=0.1 T (K) @ 36: p=0.46416 Pa, powfac=1 T (K) @ 37: p=1 Pa, powfac=0.01 T (K) @ 38: p=1 Pa, powfac=0.1 T (K) @ 39: p=1 Pa, powfac=1 T (K) @ 40: p=2.1544 Pa, powfac=0.01 T (K) @ 41: p=2.1544 Pa, powfac=0.1 T (K) @ 42: p=2.1544 Pa, powfac=1 T (K) @ 43: p=4.6416 Pa, powfac=0.01 T (K) @ 44: p=4.6416 Pa, powfac=0.1 T (K) @ 45: p=4.6416 Pa, powfac=1 T (K) @ 46: p=10 Pa, powfac=0.01 T (K) @ 47: p=10 Pa, powfac=0.1 T (K) @ 48: p=10 Pa, powfac=1 T (K) @ 49: p=21.544 Pa, powfac=0.01 T (K) @ 50: p=21.544 Pa, powfac=0.1 T (K) @ 51: p=21.544 Pa, powfac=1 T (K) @ 52: p=46.416 Pa, powfac=0.01 T (K) @ 53: p=46.416 Pa, powfac=0.1 T (K) @ 54: p=46.416 Pa, powfac=1 T (K) @ 55: p=100 Pa, powfac=0.01 T (K) @ 56: p=100 Pa, powfac=0.1 T (K) @ 57: p=100 Pa, powfac=1 T (K) @ 58: p=215.44 Pa, powfac=0.01 T (K) @ 59: p=215.44 Pa, powfac=0.1 T (K) @ 60: p=215.44 Pa, powfac=1 T (K) @ 61: p=464.16 Pa, powfac=0.01 T (K) @ 62: p=464.16 Pa, powfac=0.1 T (K) @ 63: p=464.16 Pa, powfac=1 T (K) @ 64: p=1000 Pa, powfac=0.01 T (K) @ 65: p=1000 Pa, powfac=0.1 T (K) @ 66: p=1000 Pa, powfac=1 T (K) @ 67: p=2154.4 Pa, powfac=0.01 T (K) @ 68: p=2154.4 Pa, powfac=0.1 T (K) @ 69: p=2154.4 Pa, powfac=1 T (K) @ 70: p=4641.6 Pa, powfac=0.01 T (K) @ 71: p=4641.6 Pa, powfac=0.1 T (K) @ 72: p=4641.6 Pa, powfac=1 T (K) @ 73: p=10000 Pa, powfac=0.01 T (K) @ 74: p=10000 Pa, powfac=0.1 T (K) @ 75: p=10000 Pa, powfac=1 T (K) @ 76: p=21544 Pa, powfac=0.01 T (K) @ 77: p=21544 Pa, powfac=0.1 T (K) @ 78: p=21544 Pa, powfac=1 T (K) @ 79: p=46416 Pa, powfac=0.01 T (K) @ 80: p=46416 Pa, powfac=0.1 T (K) @ 81: p=46416 Pa, powfac=1 T (K) @ 82: p=1E5 Pa, powfac=0.01 T (K) @ 83: p=1E5 Pa, powfac=0.1 T (K) @ 84: p=1E5 Pa, powfac=1 a
-9.944681357438954E-6     0                        0                        331.88713922689755       533.5081637034332        891.0653172531746        320.6233982372342        515.3240086341424        883.675000288872         309.802895496078         478.9536634581189        868.0740281995193        302.03707711109786       419.73439422563695       833.0926123703168        297.34850150817044       362.5675177610824        757.9533077063023        295.1652298080323        326.92777641226337       614.7015332864258        293.8566954529225        309.18983276829914       461.09510086028484       293.48451943201997       300.4859738779436        372.9368481263291        293.3100582602407        296.65821896959346       330.89663960100967       293.22870355359777       294.5769511182908        311.6519783563942        293.190859765968         293.8904408479045        302.42838958720887       293.1732760829597        293.57146673466          298.4280884695162        293.1651101805279        293.4233384690719        296.57195931834724       293.1613187347798        293.3545650823498        295.71053519514794       293.15955854588856       293.322638316106         295.31071022232214       293.1587414347988        293.30781787773066       295.12512740767227       293.1583621382225        293.30093850109597       295.03898680616106       293.15818607782103       293.2977452977391        294.99900365225267       293.1581043563375        293.29626312610856       294.67785082381874       293.15806642425684       293.2955751590331        294.6706625067956        293.15804881767303       293.2952558321445        294.6673259768596        293.1580406454052        293.2951076135466        294.66577729495987       293.1580368521712        293.2950388165275        294.6650584600902        293.1580350915072        293.29500688377124       294.6647248064119        293.1580342742792        293.2949920618969        294.6645699380741        293.15803389495557       293.2949851821919        294.66449805455534       293.1580337188891        293.29498198891554       294.66446468918065       293.1580336371662        293.294980506728         294.6644492023453
-7.5000000000000044E-6    0                        0                        347.07010922818483       633.9828584762766        1159.874592611553        331.403863965884         607.70553271126          1148.9274603635633       316.3205059432776        555.3450284080685        1125.8134027305553       305.50905659008725       470.8169305713765        1073.9799320001919       298.98652109922085       390.13434947262147       962.6823665653732        295.9512358290206        340.20381173053767       751.8278407332815        294.13218566902094       315.4657279755904        529.6572715158316        293.61496430787435       303.3499050428278        404.6340790494843        293.37249275649793       298.0269353938747        345.7045882088262        293.2594192709858        295.13361045876593       318.87375436301          293.20681986622014       294.17942328199064       306.04407585389794       293.1823798319151        293.73607437545536       300.4844684714385        293.1710296400204        293.5301858181297        297.9057423857629        293.165759603836         293.4345941464442        296.70914842959036       293.1633129170402        293.3902169138132        296.1537920813082        293.1621771002114        293.3696167476755        295.89602446112815       293.1616498568313        293.3600544671964        295.77637962419556       293.1614051215381        293.3556159242023        295.7208453375454        293.1612915230619        293.3535557066634        295.27619754267846       293.16123879478516       293.3525994321335        295.26620580561666       293.1612143203704        293.3521555674525        295.2615680382731        293.16120296032807       293.35194954342256       295.25941537436785       293.161197687458         293.3518539154752        295.2584161956466        293.1611952400074        293.35180952890016       295.2579524178278        293.1611941040012        293.35178892647406       295.2577371512031        293.16119357671374       293.3517793636744        295.2576372332806        293.1611933319686        293.3517749250158        295.2575908554878        293.16119321836794       293.35177286477295       295.25756932882285
-9.999999999999999E-6     0                        0                        331.56404572566316       531.3872233517794        885.418706006785         320.3940104968308        513.3727153790985        878.1033061772481        309.6641664591262        477.3379345531762        862.660482706055         301.96315818140545       418.65141975282637       828.0332660488824        297.3136218587649        361.9818660816531        753.65176781565          295.14849212337236       326.6453471081103        611.8131011517651        293.85082858568046       309.05624314998994       459.6437615939951        293.4817415343743        300.4249939817442        372.2635199987491        293.308728701721         296.6290728742806        330.5815507238717        293.2280494626939        294.5650967564011        311.49820278281453       293.19051990098967       293.8842867553478        302.35137759938925       293.17308222561513       293.5679612369919        298.38428296508596       293.16498413304436       293.4210629894265        296.5435445594926        293.1612241738736        293.3528607024137        295.6892598193167        293.15947860385745       293.32119907017676       295.2927478969323        293.158668279527         293.3065017114801        295.1087027486945        293.1582921334313        293.29967946738975       295.023275852376         293.15811753543755       293.29651278357335       294.98362396872324       293.1580364927629        293.2950429214419        294.6651072082311        293.1579988757617        293.2943606679781        294.65797859014214       293.1579814154257        293.2940439931237        294.65466977010345       293.15797331104034       293.2938970054932        294.65313395002175       293.15796954931466       293.29382877983915       294.65242108508426       293.1579678032755        293.29379711228717       294.65209020240405       293.1579669928357        293.29378241350975       294.6519366202499        293.1579666166629        293.29377559094127       294.6518653337247        293.157966442059         293.29377242418536       294.6518322454499        293.1579663610149        293.2937709543075        294.65181688723294
9.769926876264224E-6      0                        0                        332.7540964817193        539.204415185709         906.2114876915642        321.2388366510432        520.5640787980287        898.6202507523814        310.17497248989264       483.29145232024456       882.5950110957393        302.2351957912067        422.6401186467785        846.6627289526361        297.4418482546578        364.13714164667283       769.4881292307127        295.20988607646217       327.68316101586447       622.4377892263237        293.87222025203016       309.5456576799668        464.9667271316944        293.4917542070972        300.64699350553917       374.7174078807918        293.31340621133427       296.73380127784685       331.7151845974048        293.2302391336522        294.6065693435782        312.03746660109897       293.19155284686497       293.90476885343196       302.608793687486         293.17357859209454       293.5786992498992        298.51951571618986       293.1652322996515        293.42728582254324       296.62226953490176       293.1613578609224        293.35699480984914       295.7418655295824        293.1595595370682        293.3243674583361        295.3332810773487        293.15872486849787       293.3092232609867        295.14365051947095       293.15833746399693       293.302194022273         295.05563630127557       293.1581576506451        293.29893136284215       295.01478478456596       293.1580741896124        293.297416976629         294.69084484679547       293.1580354506436        293.2967140622408        294.6835001782137        293.1580174696536        293.2963877986011        294.6800910880754        293.1580091236275        293.29623636050377       294.6785087292671        293.1580052497475        293.2961660691808        294.6777742635133        293.15800345165223       293.29613344284206       294.67743335474046       293.1580026170504        293.29611829903774       294.6772751189118        293.15800222966254       293.29611126990665       294.67720167234773       293.15800204985305       293.296108007273         294.6771675814728        293.15800196639293       293.2961064928927        294.6771517578904
9.83874865503917E-6       0                        0                        332.3544980412221        536.580194104373         899.2250558601463        320.9551333382513        518.1498347409798        891.7264658693948        310.00339948621365       481.29252828577916       875.896760721188         302.14377999680676       421.30047884819504       840.4025694081807        297.3987152708373        363.41279302241827       764.1654987853187        295.1891903641039        327.3338957239169        618.8640709563516        293.8649683290857        309.3804853050526        463.17171054775645       293.4883225670646        300.57162299471355       373.88505022530853       293.31176580450017       296.69780174551425       331.3259682505413        293.2294341057764        294.5919475790352        311.84776853215305       293.1911364245109        293.89719677398784       302.514017359321         293.17334272239214       293.57440260266117       298.4658046502927        293.16508026557676       293.42451012066124       296.5875893290766        293.16124474106084       293.35492514887636       295.71601157804076       293.15946447755726       293.32262550718684       295.31152211127824       293.158638190825         293.3076334121577        295.1237918182014        293.1582546764992        293.3006747704922        295.0366595130959        293.1580766687211        293.2974448786034        294.99621731836015       293.15799404574125       293.2959457015669        294.6754622598233        293.15795569575766       293.2952498466149        294.6681913551877        293.15793789531756       293.29492685966665       294.66481650315745       293.15792963309514       293.2947769424731        294.66325003625303       293.1579257981133        293.2947073570906        294.6625229468637        293.15792401807295       293.29467505842035       294.66218546189515       293.1579231918514        293.29466006670634       294.66202881525544       293.1579228083534        293.2946531081692        294.6619561063275        293.1579226303494        293.29464987830244       294.66192235783296       293.15792254772725       293.2946483791311        294.66190669316944
9.767413071681315E-6      0                        0                        332.7686923321743        539.3002682586498        906.4666761605142        321.2491992818931        520.6522621882708        898.8720551715771        310.1812394160115        483.3644656088891        882.8396733638288        302.2385348714659        422.68905072504026       846.8913893858988        297.4434237427421        364.1635994180889        769.6825451996826        295.2106420141537        327.69591838289534       622.5683239135258        293.87248513790576       309.5516908148322        465.032292436681         293.49187955219276       300.6497465110398        374.7478108219279        293.31346612931793       296.7351162073789        331.7294012284467        293.23026853833784       294.6071034224609        312.04439556869573       293.19156805723065       293.90504543343826       302.6122555155924        293.1735872075408        293.5788561905031        298.5214775824189        293.1652378528929        293.42738720864855       296.6235362743248        293.16136199277184       293.35707040689596       295.7428098786392        293.15956300923995       293.32443108535733       295.33407585175877       293.158728034512         293.30928133227377       295.1443758842486        293.1583404879174        293.30224951491147       295.05632945303563       293.1581606086147        293.29898565860367       295.015462985311         293.158077116971         293.2974707168557        294.6914067157026        293.15803836379405       293.2967675446125        294.6840593527972        293.15802037620927       293.2964411612873        294.68064901206765       293.1580120271221        293.2962896676371        294.6790660727869        293.1580081518213        293.2962193505287        294.67833133760195       293.1580063530665        293.29618671222136       294.6779903037702        293.1580055181586        293.29617156286184       294.6778320098943        293.1580051306287        293.29616453115216       294.67775853638716       293.15800495075325       293.29616126732174       294.67772443300635       293.15800486726243       293.29615975238585       294.67770860361924
8.85378565246668E-6       0                        0                        337.7337731154037        571.9002691788332        993.2558088141332        324.77425786512913       550.6441749835283        984.5099741828612        312.31308026899706       508.1976703850204        966.0479814487937        303.37440795040305       439.33273366580806       924.6562433882261        297.97936890413473       373.16338609202273       835.8000376219026        295.4677955214856        332.0355792235626        666.9619264297592        293.96259413410974       311.6040126376498        487.33280813199235       293.53451987576886       301.5862620536409        385.08961731320244       293.333849621821         297.1824338523569        336.5655648467711        293.2402720965756        294.7887924242349        314.40155828044993       293.19674302764537       293.999139142194         303.78998532298107       293.17651873223554       293.63225125414556       299.18895390207183       293.16712768001787       293.4618838442612        297.05454457020414       293.16276828979596       293.3827941428201        296.06414699847664       293.1607448953701        293.3460828553789        295.60453027005207       293.15980577070536       293.32904314668303       295.3912182814057        293.15936988594865       293.32113412049796       295.29221348991655       293.159167571088         293.3174631083382        295.24626091812297       293.15907366602346       293.31575918360505       294.8826143594209        293.1590300794192        293.31496829368825       294.8743504363788        293.15900984836816       293.31460119552656       294.87051466711034       293.1590004579589        293.3144308037453        294.86873426160986       293.1589960993197        293.31435171490625       294.86790787077155       293.15899407621924       293.3143150051233        294.8675242941642        293.15899313717927       293.3142979659524        294.8673462536832        293.1589927013156        293.31429005707          294.86726361461444       293.1589924990056        293.3142863860921        294.86722525695683       293.1589924051016        293.31428468217507       294.8672074529093
8.562732961252483E-6      0                        0                        339.2249204239317        581.6670927357203        1019.1972039310175       325.83289112600994       559.631390028177         1010.1076522077682       312.9533704145007        515.6421970175134        990.9203217179622        303.71558624605603       444.3257424680234        947.9041109083752        298.14035730424916       375.86493757135395       855.5728682915327        295.5450409078305        333.3387735752376        680.2523972301           293.9896623756743        312.2204299698436        494.0198418471225        293.5473288415848        301.86757146855985       388.193970737644         293.3399728508236        297.31680404077736       338.0179902350953        293.2432773082983        294.84337221548367       315.10963498606253       293.1982977876361        294.0274063378103        304.14381076377754       293.1773995868675        293.6482930546053        299.3895037552874        293.1676956196799        293.4722487697584        297.1840579398184        293.1631909812834        293.3905237800068        296.16071362001344       293.16110017536613       293.352589311841         295.68581081015816       293.1601297646124        293.3349818764419        295.4654052913418        293.1596793592805        293.3268093436711        295.36310837324646       293.1594703048633        293.32301602500013       295.31562782366825       293.15937327164386       293.32125533119324       294.94007592668754       293.15932823309447       293.32043809153805       294.93153667597437       293.1593073281136        293.32005876294016       294.9275731112061        293.15929762489463       293.3198826942997        294.9257333883509        293.1592931210622        293.31980097049734       294.9248794648489        293.15929103056897       293.31976303767317       294.924483108714         293.1592900602482        293.31974543081674       294.9242991365025        293.1592896098652        293.31973725843824       294.92421374416836       293.1592894008158        293.3197334651561        294.9241741085583        293.1592893037838        293.31973170447054       294.92415571133773
8.552734179381405E-6      0                        0                        339.2761470819414        582.0026207733113        1020.0883908502077       325.8692592592605        559.9401355081965        1010.9870311199144       312.97536684914076       515.8979452039368        991.7747824822217        303.72730703566          444.49727156705165       948.7027647718113        298.145887876359         375.95774627840507       856.2521412438448        295.54769458461124       333.3835433246726        680.708976133192         293.9905922741126        312.24160628132336       494.24956723190843       293.5477688789356        301.8772355313326        388.30061724420005       293.3401832073432        297.3214201747096        338.0678866458836        293.2433805489052        294.8452472417032        315.13396015034084       293.19835119963494       294.028377424942         304.15596603156837       293.1774298476196        293.6488441522879        299.3963934158098        293.16771513059655       293.4726048449032        297.18850722330296       293.1632055023654        293.39078932283974       296.164031055701         293.16111238060347       293.3528128337011        295.6886031100249        293.160140895052         293.3351858947012        295.4679539011036        293.1596899908824        293.32700430946346       295.36554388576917       293.15948070493545       293.3232067890924        295.3180108442641        293.1593835642518        293.3214441450491        294.94204995302164       293.15933847582255       293.3206260001788        294.9335012437417        293.1593175476896        293.3202462514183        294.92953328870533       293.15930783372437       293.3200699877558        294.92769152807045       293.15930332490393       293.3199881734323        294.9268366587153        293.15930123209563       293.31995019859187       294.9264398635544        293.1593002607001        293.3199325722333        294.926255687565         293.1592998098183        293.3199243908026        294.92617020064563       293.15929960053757       293.31992059331895       294.9261305211329        293.159299503398         293.31991883068315       294.92611210353465
7.5000000000000095E-6     0                        0                        347.0696689406436        633.978266839736         1159.8286242668055       331.40340963017667       607.7009490894005        1148.881512717124        316.3200522052918        555.3404643641343        1125.7674981456228       305.508603241007         470.8124092450341        1073.9341125958433       298.9860825397544        390.12980645428496       962.6367087155297        295.9507974111102        340.19930093135673       751.7824059807939        294.1318201574675        315.4612191581693        529.6119094828879        293.61459899649805       303.3455441686609        404.5887477784437        293.3721278344541        298.02257924004533       345.65959510463506       293.2590551079531        295.1299876306612        318.82885500710404       293.20645707600363       294.17581414591643       306.0007897483511        293.1820191821176        293.73248657293317       300.44143983522105       293.17067165236256       293.5266245441268        297.86303405436286       293.16540413177927       293.43105793898354       296.6667427688628        293.16295927503046       293.38669894117174       296.1116065937625        293.1618245516858        293.366109670476         295.8539705239989        293.1612978865305        293.3565531513658        295.7343952475719        293.161053437335         293.35211745900665       295.6788953779224        293.16093997576064       293.3500586055347        295.2412449032751        293.1608873119445        293.34910297327855       295.23125958661933       293.16086286765034       293.3486594087142        295.22662481935293       293.16085152163237       293.3484535244203        295.2244735522998        293.16084625528123       293.3483579614264        295.2234750228781        293.16084381085847       293.34831360502045       295.22301154663995       293.16084267625814       293.34829301660193       295.22279642004025       293.1608421496233        293.3482834603049        295.22269656712103       293.1608419051811        293.3482790246648        295.2226502195021        293.1608417917211        293.3482769658231        295.22262870684307
9.91429434478914E-6       0                        0                        332.0369944706473        534.5275975570075        893.8364013484694        320.7297638631759        516.259111520851         886.4088733733499        309.8670174021812        479.72282288560626       870.7290550818426        302.07108231411365       420.24366566208744       835.5700515187698        297.36440262501145       362.8390836067779        760.0484719114916        295.17272539963744       327.0565531837973        616.0816050149783        293.859197956606         309.24917818497875       461.75976202299205       293.48559200583907       300.51167086839604       373.2258754166867        293.31046043920287       296.6691598777469        331.01673643932554       293.22879339005306       294.5803120923529        311.6968414881052        293.19080488974896       293.89117011811464       302.4385600025222        293.17315483823495       293.57098192436365       298.4230212352821        293.1649590831948        293.42229953412317       296.5599529074162        293.16115452055124       293.3532763084204        295.695401233962         293.15938862705286       293.32123740577396       295.2941718162026        293.15856900960875       293.3063663308745        295.1079544024883        293.1581885906723        293.2994638601319        295.02152423995614       293.158012019589         293.29626004002006       294.9814079338073        293.1579300634504        293.29477296432043       294.66320197302076       293.157892022984         293.29408272628643       294.6559897593113        293.1578743662084        293.293762346475         294.6526421491418        293.1578661706689        293.29361363940603       294.65108832677726       293.15786236663854       293.2935446157133        294.650367106461         293.15786060096457       293.29351257775636       294.65003234567416       293.15785978141133       293.2934977070546        294.64987696348754       293.15785940100847       293.29349080468654       294.6498048414667        293.15785922444104       293.293487600891         294.64977136539034       293.1578591424858        293.29348611382096       294.6497558271721
9.999999999999999E-6      0                        0                        331.6767905776395        532.1989520372201        887.7230391281131        320.47408496753286       514.1141092984896        880.3761301351022        309.7122936064265        477.9420114289221        864.8663566377247        301.98860768785573       419.04472410962296       830.0876194514875        297.32547535063946       362.18821733590477       755.3777555951814        295.15404610009966       326.7419114855421        612.9249316508651        293.8526515400491        309.10021187337276       460.1579237997997        293.48249421773613       300.44365591897497       372.4780497093775        293.3089795183393        296.6366660312866        330.66591675550245       293.22806650595084       294.5671117759206        311.5256166142314        293.1904287676421        293.88433295120205       302.35295455995737       293.17294168597107       293.56710120693657       298.37448397752746       293.1648216032739        293.4197916509035        296.5285997271893        293.1610521664936        293.35140571921687       295.6720190522752        293.1593025755893        293.3196626218057        295.2744881199854        293.1584905243703        293.3049288427537        295.0899870492875        293.15811361711496       293.29809009723175       295.00435345886285       293.15793867594454       293.2949158552301        294.9646068693049        293.1578574763289        293.2934425083482        294.64929282854183       293.1578197870059        293.2927586426386        294.6421471989658        293.15780229321587       293.2924412205919        294.638830494352         293.15779417332743       293.2922938863942        294.6372910170624        293.1577904044112        293.29222549993176       294.6365764551372        293.1577886550357        293.2921937577507        294.63624478490107       293.1577878430475        293.292179024336         294.63609083722093       293.1577874661561        293.29217218569084       294.636019381039         293.15778729121854       293.292169011473         294.63598621401763       293.1577872100198        293.2921675381316        294.63597081925