% Model:              thermal_sim.mph
% Version:            COMSOL 5.4.0.388
% Date:               Jan 27 2020, 11:56
% Dimension:          3
% Nodes:              39
% Expressions:        84
% Description:        Temperature
% Length unit:        m
% X                       Y                        Z                        T (K) @ 1: p=1E-4 Pa, powfac=0.01 T (K) @ 2: p=1E-4 Pa, powfac=0.1 T (K) @ 3: p=1E-4 Pa, powfac=1 T (K) @ 4: p=2.1544E-4 Pa, powfac=0.01 T (K) @ 5: p=2.1544E-4 Pa, powfac=0.1 T (K) @ 6: p=2.1544E-4 Pa, powfac=1 T (K) @ 7: p=4.6416E-4 Pa, powfac=0.01 T (K) @ 8: p=4.6416E-4 Pa, powfac=0.1 T (K) @ 9: p=4.6416E-4 Pa, powfac=1 T (K) @ 10: p=0.001 Pa, powfac=0.01 T (K) @ 11: p=0.001 Pa, powfac=0.1 T (K) @ 12: p=0.001 Pa, powfac=1 T (K) @ 13: p=0.0021544 Pa, powfac=0.01 T (K) @ 14: p=0.0021544 Pa, powfac=0.1 T (K) @ 15: p=0.0021544 Pa, powfac=1 T (K) @ 16: p=0.0046416 Pa, powfac=0.01 T (K) @ 17: p=0.0046416 Pa, powfac=0.1 T (K) @ 18: p=0.0046416 Pa, powfac=1 T (K) @ 19: p=0.01 Pa, powfac=0.01 T (K) @ 20: p=0.01 Pa, powfac=0.1 T (K) @ 21: p=0.01 Pa, powfac=1 T (K) @ 22: p=0.021544 Pa, powfac=0.01 T (K) @ 23: p=0.021544 Pa, powfac=0.1 T (K) @ 24: p=0.021544 Pa, powfac=1 T (K) @ 25: p=0.046416 Pa, powfac=0.01 T (K) @ 26: p=0.046416 Pa, powfac=0.1 T (K) @ 27: p=0.046416 Pa, powfac=1 T (K) @ 28: p=0.1 Pa, powfac=0.01 T (K) @ 29: p=0.1 Pa, powfac=0.1 T (K) @ 30: p=0.1 Pa, powfac=1 T (K) @ 31: p=0.21544 Pa, powfac=0.01 T (K) @ 32: p=0.21544 Pa, powfac=0.1 T (K) @ 33: p=0.21544 Pa, powfac=1 T (K) @ 34: p=0.46416 Pa, powfac=0.01 T (K) @ 35: p=0.46416 Pa, powfac=0.1 T (K) @ 36: p=0.46416 Pa, powfac=1 T (K) @ 37: p=1 Pa, powfac=0.01 T (K) @ 38: p=1 Pa, powfac=0.1 T (K) @ 39: p=1 Pa, powfac=1 T (K) @ 40: p=2.1544 Pa, powfac=0.01 T (K) @ 41: p=2.1544 Pa, powfac=0.1 T (K) @ 42: p=2.1544 Pa, powfac=1 T (K) @ 43: p=4.6416 Pa, powfac=0.01 T (K) @ 44: p=4.6416 Pa, powfac=0.1 T (K) @ 45: p=4.6416 Pa, powfac=1 T (K) @ 46: p=10 Pa, powfac=0.01 T (K) @ 47: p=10 Pa, powfac=0.1 T (K) @ 48: p=10 Pa, powfac=1 T (K) @ 49: p=21.544 Pa, powfac=0.01 T (K) @ 50: p=21.544 Pa, powfac=0.1 T (K) @ 51: p=21.544 Pa, powfac=1 T (K) @ 52: p=46.416 Pa, powfac=0.01 T (K) @ 53: p=46.416 Pa, powfac=0.1 T (K) @ 54: p=46.416 Pa, powfac=1 T (K) @ 55: p=100 Pa, powfac=0.01 T (K) @ 56: p=100 Pa, powfac=0.1 T (K) @ 57: p=100 Pa, powfac=1 T (K) @ 58: p=215.44 Pa, powfac=0.01 T (K) @ 59: p=215.44 Pa, powfac=0.1 T (K) @ 60: p=215.44 Pa, powfac=1 T (K) @ 61: p=464.16 Pa, powfac=0.01 T (K) @ 62: p=464.16 Pa, powfac=0.1 T (K) @ 63: p=464.16 Pa, powfac=1 T (K) @ 64: p=1000 Pa, powfac=0.01 T (K) @ 65: p=1000 Pa, powfac=0.1 T (K) @ 66: p=1000 Pa, powfac=1 T (K) @ 67: p=2154.4 Pa, powfac=0.01 T (K) @ 68: p=2154.4 Pa, powfac=0.1 T (K) @ 69: p=2154.4 Pa, powfac=1 T (K) @ 70: p=4641.6 Pa, powfac=0.01 T (K) @ 71: p=4641.6 Pa, powfac=0.1 T (K) @ 72: p=4641.6 Pa, powfac=1 T (K) @ 73: p=10000 Pa, powfac=0.01 T (K) @ 74: p=10000 Pa, powfac=0.1 T (K) @ 75: p=10000 Pa, powfac=1 T (K) @ 76: p=21544 Pa, powfac=0.01 T (K) @ 77: p=21544 Pa, powfac=0.1 T (K) @ 78: p=21544 Pa, powfac=1 T (K) @ 79: p=46416 Pa, powfac=0.01 T (K) @ 80: p=46416 Pa, powfac=0.1 T (K) @ 81: p=46416 Pa, powfac=1 T (K) @ 82: p=1E5 Pa, powfac=0.01 T (K) @ 83: p=1E5 Pa, powfac=0.1 T (K) @ 84: p=1E5 Pa, powfac=1 a
-9.944681357438954E-6     0                        0                        442.36347751057053       699.5989826703117        1135.2193661058363       442.3555219447272        699.5955931837127        1135.216850191625        442.33838866877505       699.5882947614306        1135.2114433118672       442.30150597551705       699.5725892395837        1135.1998567155183       442.22218124812923       699.5388370617252        1135.1751784019434       442.0518975226238        699.4664990698361        1135.123288019293        441.6877234984381        699.3122913769213        1135.0170275238997       440.914135329443         699.6151506374392        1134.8103014922747       439.28708367912526       698.7221453817879        1134.4412315108798       436.17689285772354       697.0833733824052        1134.439156167722        429.2570575533774        694.1983079086707        1133.6404506285728       414.8666675750851        688.2060336853411        1131.2935885993645       389.0498995999088        674.4079933279701        1127.1597043504285       354.48366967680676       644.0381763421252        1118.6186508864475       325.9134677524609        579.846043467436         1099.3210905381993       309.21586730405716       471.8440460611713        1055.3900509470363       300.73655797679226       380.5613144663556        955.0719340529588        296.8386873996367        333.6089299762042        739.024284237101         294.91344632421936       312.383699883231         504.9436439072103        294.1958543735279        302.4124686125894        389.7049794855665        293.68516791069004       297.80987491183674       339.96399925427886       293.7240029312475        295.8890396644454        318.15610643083363       293.5027706008415        294.82022081857224       307.9655190389162        293.39874407944535       294.32373596117003       303.52487110089396       293.3501640661103        294.09319536354377       301.47380298925793       293.3275508087733        293.986165344833         300.52394043498924       293.317040680729         294.24167462575895       300.08351420195686       293.3121592856237        294.2096542256929        299.87918507787845
-7.5000000000000044E-6    0                        0                        508.59313839023554       903.8853033361141        1608.0449745456615       508.5813189351541        903.879970781123         1608.0408486437668       508.5558642824661        903.8684883760723        1608.0319816768622       508.50106811329306       903.8437790159562        1608.0129798349442       508.3832158886831        903.7906756438424        1607.9725054729568       508.13022473147333       903.6768578509603        1607.8873907116463       507.5891647652699        903.4341983792738        1607.7130471191033       506.4398316562393        903.8987749687441        1607.3736702441943       504.02269857153846       902.4969157255837        1606.7670212037801       499.39705097411144       899.9205395324472        1606.753904645113        489.13227926755934       895.3747452658214        1605.429907420475        467.8728907879889        885.9340839558811        1601.5564565583677       430.0052046707336        864.2479662510958        1594.7173278517996       379.92254446150196       816.6982703911973        1580.584256322863        339.115462584439         717.0481073119853        1548.672572761984        315.5566403566281        552.5803261987113        1476.1295738774265       303.7031973153123        417.5412979137065        1312.2138382063147       298.24978447008124       350.02484639350206       964.8416673961069        295.5921568508723        319.9973787279137        601.6170771896799        294.59116321674384       306.0471712833723        430.38920238078794       293.8912746298671        299.63199733350285       358.80488566811187       293.9461017722495        296.95779724926695       327.9964502180583        293.6409423503379        295.47264362313257       313.7361352947423        293.49674645286905       294.7826478831324        307.5493504807097        293.42925126978076       294.4622204852582        304.6973540270433        293.3977991606587        294.31345220197545       303.3777821145648        293.38317352786686       294.66997216898164       302.76619060459853       293.3763790977994        294.6254471763997        302.48250764280914
-9.999999999999999E-6     0                        0                        440.97403851610295       695.367482530877         1125.524491331201        440.96616324862947       695.3641328112856        1125.5220080724862       440.9492029054124        695.3569200186623        1125.5166713737722       440.91269248539794       695.3413987694934        1125.5052351803479       440.8341684263235        695.3080426313795        1125.4808772537035       440.66560350444774       695.2365535519834        1125.429660737244        440.3051054792494        695.084156045197         1125.3247810565974       439.5393260046924        695.3836872532053        1125.1207450800205       437.92869437246          694.501101004055         1124.7564919504935       434.84999049340166       692.8815210721923        1124.7546268256237       427.9997064534988        690.0304342844379        1123.9665557818832       413.75232276835993       684.1087172494456        1121.6506227429695       388.1870221789774        670.4721615758572        1117.5715249599796       353.94591593936195       640.4543682967161        1109.1437180984221       325.633459296919         576.990303370897         1090.1016303057297       309.0810678409944        470.15352249606417       1046.7500391933374       300.67342634351934       379.78142259888756       947.7232054463293        296.80859195701515       333.26103195615764       734.350311735024         294.89897379642275       312.2218723884063        502.92171802882916       294.18740561666675       302.33512475391757       388.8465508780278        293.68077181617303       297.7710820326335        339.56430303442113       293.71926791444025       295.8662780360505        317.94676409315326       293.49982901358516       294.8063262915417        307.84258452185117       293.39665899584105       294.31396255030677       303.4390805348382        293.3484818829167        294.0853361553942        301.40506444606734       293.3260568060738        293.9791949637238        300.4630763168592        293.31563427815126       294.2325559920072        300.026296418228         293.3107935985076        294.20080183780794       299.8236579185853
9.769926876264224E-6      0                        0                        446.0981970353543        710.9745567979165        1161.2166443626063       446.09002540281216       710.9710602888724        1161.2140406025708       446.0724267997952        710.9635314168893        1161.2084449304045       446.0345423944487        710.9473299736603        1161.19645373868         445.9530632305125        710.9125119593871        1161.1709135605893       445.7781545525806        710.8378893447963        1161.1172104312354       445.4040891630394        710.6788100212498        1161.0072354638287       444.6094894056734        710.9906280726315        1160.793273098796        442.93825499295133       710.0695822220594        1160.4112459147132       439.7433387491212        708.3791594756323        1160.4086087305504       432.6363609822796        705.4026505505033        1159.581300918463        417.8612090241182        699.2204925508242        1157.151246306443        391.3679642252636        684.9878546336056        1152.8700042404673       355.92740539099793       653.6706205429466        1144.0243531618055       326.6644349185528        587.5189049392185        1124.039652879441        309.57676634219956       476.38069172063376       1078.5500057257752       300.90502992603564       382.6476370182273        974.757824600539         296.91846331709104       334.53364646573243       751.5117762449947        294.9513002051213        312.80848704802764       510.2898761900791        294.2175447265567        302.61037592924595       391.9172879231281        293.69599324997154       297.9042997922711        340.94169970151955       293.7357772036285        295.94078556526784       318.62181373576175       293.50974018979315       294.84822595200507       308.20247114004667       293.40342209974045       294.3407462481943        303.66260667273707       293.3537663128938        294.10512276033216       301.5662478277584        293.33065156292145       293.9957428022435        300.5955789168059        293.31990829498386       294.25856191388925       300.1455524609678        293.31491862189205       294.2258351574914        299.9367812707133
9.83874865503917E-6       0                        0                        444.37854922020074       705.7343647635536        1149.2066558051552       444.3704770165642        705.7309175309053        1149.2040925256017       444.3530925463192        705.7234947649997        1149.1985838514313       444.315669105757         705.7075216591625        1149.186779102586        444.2351813638338        705.6731943888368        1149.1616360835778       444.0624009825095        705.5996236859706        1149.1087682951706       443.6928873722483        705.4427874177729        1149.000505023285        442.907956668435         705.750482521606         1148.7898773374814       441.25705416566046       704.8423469060483        1148.413821334061        438.1011266682081        703.1757054215176        1148.4114454407586       431.0802678260823        700.2413009020643        1147.5973214080848       416.482176838448         694.1465730448924        1145.205608886166        390.3002476647109        680.1140322522662        1140.9922856794994       355.262109625068         649.2329759210932        1132.2870266827344       326.3180802536029        583.9832918098856        1112.6190367066743       309.41005475434065       474.28837461215244       1067.8477425708256       300.82696568511585       381.68281648177225       965.6561729053191        296.8812618575038        334.10345623387326       745.7251725870341        294.93341973470524       312.60850214381475       507.788906692408         294.2071148263536        302.5148913035798        390.85694855608693       293.6905740989238        297.85649531839005       340.44903784468687       293.72993811601077       295.91280188081197       318.3646250971346        293.50611862223906       294.8312073123787        308.05208650942217       293.40085961952934       294.3288230941807        303.55814562125624       293.3517020128092        294.0955659667328        301.48286392599283       293.32881993302965       293.9872846068374        300.52192610242025       293.3181849712415        294.2474188388756        300.0764050837347        293.31324563628823       294.21502120669965       299.86972267323563
9.767413071681315E-6      0                        0                        446.16100939847064       711.1659615971789        1161.655324745674        446.15283413415887       711.1624632882507        1161.6527195070369       446.1352277096651        711.1549305406057        1161.647120657156        446.0973264669831        711.1387207570579        1161.6351226553638       446.0158110900742        711.1038848177266        1161.6095679705234       445.84082467335287       711.0292237806977        1161.5558343292598       445.4665930241795        710.8700625266504        1161.4457968399577       444.6716400921127        711.1820311740298        1161.2317126714483       442.9996630300533        710.2605137604071        1160.8494673822602       439.8033226717775        708.5692223725964        1160.8468206541104       432.6931992997004        705.5911755295317        1160.0190312874088       417.911579960325         699.4058240306895        1157.5875761809011       391.40696395515937       685.1658773069014        1153.303853290645        355.9517061802997        653.8327112587971        1144.453074209407        326.6770859711637        587.6480477868187        1124.4568056730159       309.5828556988109        476.45711631223577       1078.9409197452223       300.9078813235159        382.682878337609         975.0902742138846        296.91982214857234       334.54935972097826       751.7231394363243        294.95195331245554       312.8157917556024        510.3812273393355        294.21792569216666       302.6138636288356        391.95601819147845       293.69619119148047       297.9060459125787        340.9596948137583        293.7359904838644        295.94180770557693       318.6312078838056        293.5098724722374        294.8488475798537        308.2079641334042        293.40351569764806       294.3411817568332        303.66642224790263       293.3538417141273        294.10547183459283       301.56929353273915       293.3307184655749        293.99605174878275       300.59826918121985       293.3199712416149        294.2589689291326        300.148078158456         293.31497972985744       294.2262301510464        299.9392306728163
8.85378565246668E-6       0                        0                        467.52082771068507       776.2378685572369        1310.7673105136912       467.51141769261767       776.2337584809509        1310.7642027752506       467.4911520691397        776.2249084244359        1310.757523985786        467.447526354315         776.2058638281371        1310.7432115970073       467.3536990439972        776.164935294501         1310.712726824706        467.1522824630969        776.0772147579198        1310.648623779857        466.7215247259717        775.8902059476834        1310.517338381503        465.8064970124484        776.2533652461303        1310.2618596640116       463.88202865301963       775.171565942147         1309.8054922199212       460.20150972362524       773.1850290538057        1309.7996047788474       452.0219095024381        769.6842574333044        1308.808164196762        435.04138396862345       762.4134628407462        1305.9007611973934       404.67037694501107       745.6892941563788        1300.7739526969337       364.2167969154254        708.9408671093586        1290.1804691426178       330.9802546851578        631.5568576947808        1266.2528430673603       311.6542259573797        502.44482624713964       1211.8200237757583       301.8778458098318        394.6683880876766        1088.1000325026357       297.3820817844577        339.8940434362348        823.5795709458484        295.17413536085485       315.30059876606316       541.4441276725371        294.3475361258311        303.8003098243199        405.12853943144034       293.763532427604         298.50006548367435       347.0809619655441        293.80854912755547       296.2895494028696        321.8271261801849        293.5548750623061        295.06034338620634       310.07688792398613       293.43535822495403       294.48936370816705       304.9647407439514        293.37949408260516       294.2242505721068        302.60571968107735       293.35347981260725       294.1011798268905        301.5137809147253        293.34138684748865       294.3974523983874        301.007606832444         293.3357698684311        294.36062410166994       300.77280477748405
8.562732961252483E-6      0                        0                        473.9074608349475        795.6139954634011        1355.0147182564203       473.8976827339374        795.6097039570694        1355.0114619656958       473.87662439714694       795.6004632302997        1355.0044639176697       473.83129220422524       795.5805779230171        1354.9894673363672       473.73379467940657       795.5378425323744        1354.9575251083518       473.52449921070223       795.4462490060995        1354.8903566361162       473.0768909305537        795.2509816532345        1354.752789991093        472.1260686215267        795.6293525422287        1354.4850747946664       470.12633114166715       794.5000111014326        1354.006798160803        466.3014895424746        792.4259092950921        1353.9999754205026       457.8030218686794        788.7701313298132        1352.9601883863234       440.1666173646812        781.1774605609755        1349.9121404872024       408.64150464972033       763.7164831892072        1344.536233113555        366.6939695884903        725.3614122784217        1333.4278528413354       332.27130838466127       644.6523036048912        1308.338618953011        312.2761379977672        510.2104662403498        1251.2710239498685       302.16916044710575       398.25804765078686       1121.675158012868        297.5210175850169        341.4971939615871        844.9706362160803        295.240906676159         316.04659638767123       550.7231220770263        294.3865145512269        304.15663501556753       409.07442835232604       293.7837716109876        298.678498825522         348.9177270553321        293.83035220454104       296.394018853005         322.7869655892836        293.56839210456593       295.12388452766925       310.6384584461181        293.4449206718248        294.5338856995409        305.35496029640916       293.38719695883117       294.25994006822503       302.9172732362773        293.3603143277669        294.13276878460766       301.78901022300107       293.3478171760756        294.43905125248557       301.266017112994         293.3420123468202        294.400994566807         301.02341729261923
8.552734179381405E-6      0                        0                        474.1268663014757        796.2796401122545        1356.5347872739394       474.11707555539755       796.2753423731014        1356.5315258798714       474.09598998584914       796.2660882253024        1356.5245168640827       474.0505991688268        796.2461740363569        1356.5094967781297       473.9529755579924        796.203376573211         1356.4775044808925       473.743409419121         796.1116499948108        1356.4102306994098       473.29522225786536       795.916098929172         1356.2724482693511       472.3431702665046        796.2949923949382        1356.0043127027047       470.34084700221655       795.1640176984808        1355.5252834037187       466.5110473629923        793.0869076996682        1355.5184285322848       458.0016253630539        789.4258046689397        1354.4769806111137       440.34268888819736       781.8220762127028        1351.424101017539        408.7779281939794        764.335786622328         1346.0396361373903       366.7790700186277        725.9255213016529        1334.9135671781255       332.31566105589525       645.1021826512367        1309.7844275837447       312.29750307365396       510.47724590851755       1252.626317878577        302.1791682278337        398.3813662939275        1122.8285929969954       297.5257905653254        341.5522683618362        845.705501764771         295.24320052822475       316.07222428158866       551.0418913027853        294.3878536103904        304.1688761594223        409.20998484707223       293.7844669049533        298.68462869862583       348.9808270163893        293.83110122428036       296.39760778131813       322.81993977290244       293.56885646707207       295.1260674108121        310.65775055825287       293.44524917873537       294.53541520156466       305.3683658422249        293.387461582322         294.2611661399899        302.92797630185146       293.3605491197078        294.13385398707203       301.79846541067343       293.3480380826496        294.440480333476         301.2748945022313        293.34222680001596       294.40238144790146       301.03202679855633
7.5000000000000095E-6     0                        0                        508.59149570924427       903.8688777651945        1607.8807891514996       508.57967625593415       903.8635452146178        1607.8766632574277       508.55422160706166       903.8520628190776        1607.8677963073787       508.4994254461062        903.8273534794502        1607.8487945017816       508.38157323918745       903.7742501514734        1607.808320218078        508.1285821200315        903.6604324536613        1607.7232056255718       507.58752223553427       903.4177731867031        1607.5488623973422       506.438189301262         903.8823502203461        1607.209486309862        504.0210565873173        902.4804919242811        1606.602838974565        499.3954097658005        899.9041177625168        1606.5897261892626       489.13063961505304       895.3583278371846        1605.2657369838676       467.87125397307886       885.917675703208         1601.392303259298        430.0035720417265        864.2315768467812        1594.5532113893712       379.9209158108103        816.681917231832         1580.420218738823        339.11383626593175       717.0318120193713        1548.5087517405077       315.5550153334679        552.5640835932986        1475.9662925410241       303.7015733577652        417.52509890926734       1312.0509349037989       298.24816444680073       350.0086537168991        964.6796476199496        295.5905380692816        319.98130756475706       601.4553118144713        294.58956352927464       306.0311245502329        430.22764173580515       293.8896798250227        299.6159976684091        358.6448134499304        293.94459824257433       296.9424227181721        327.837180117244         293.6394496167377        295.4573761998795        313.5831322310035        293.49526511905424       294.7674950764893        307.397525604728         293.4277791540246        294.44716079943237       304.5464879743525        293.39633298804637       294.29845266470073       303.22753568574274       293.38171064334716       294.65766726021195       302.6162873030128        293.37491787953894       294.6131563576803        302.3327782901978
9.91429434478914E-6       0                        0                        443.05050985947537       701.7936441943807        1140.3719919094224       443.0425129574124        701.7902330640338        1140.369457692316        443.0252906586188        701.7828880364314        1140.3640114769335       442.9882163252133        701.7670822203595        1140.3523405802327       442.90847942616284       701.7331144857602        1140.3274826852073       442.7373108846409        701.6603144297812        1140.2752145646946       442.3712445065508        701.5051213747172        1140.1681799342045       441.5936366167343        701.8097575065824        1139.9599452759128       439.9581335010576        700.911090485193         1139.5881720902134       436.8317181077513        699.2618784586917        1139.5859552734544       429.87615208182655       696.3583005909802        1138.7812547549747       415.4126586083023        690.3275896160636        1136.4169968835442       389.4685209591055        676.4417394719943        1132.2522601386206       354.7403927628636        645.8810850331746        1123.6474263225157       326.0446673358378        581.2970583484265        1104.2060486687963       309.27783703305465       472.67885859729364       1059.9488077773403       300.7649287253338        380.9297101902846        958.908847098742         296.85155943373576       333.76438876562906       741.3804163416968        294.9191530586865        312.4499605559259        505.869359091472         294.1987555986073        302.4390235426845        390.028368655472         293.6862483411962        297.81847141660927       340.0598611807572        293.7252822937528        295.89052619226436       318.1603048088321        293.50323883081376       294.8176578200173        307.93226335665844       293.39882448313466       294.31932818925293       303.47478741549264       293.35006340480754       294.08795390977343       301.41626990228104       293.3273663492595        293.98054665179666       300.4630781239366        293.3168174779903        294.23855468798627       300.02114483598547       293.3119181479427        294.20641883655225       299.8161260392644
9.999999999999999E-6      0                        0                        441.54386555013764       697.3229452107365        1130.3491744560704       441.53595407678307       697.3195750380061        1130.346673209953        441.51891575950526       697.312318203552         1130.3412978532965       441.48223748387215       697.2967021756602        1130.329778810206        441.4033524068194        697.2631423299174        1130.3052443848296       441.23401247771494       697.1912165633466        1130.253656580162        440.8718569420947        697.037887713358         1130.1480158282136       440.1025566946289        697.3390534791753        1129.9424960301812       438.4845239940804        696.4511284613312        1129.5755816484739       435.3915897196951        694.8216899404439        1129.573545302095        428.51009759013135       691.9530845297213        1128.7795356444851       414.19930333974924       685.9949999198085        1126.446424736124        388.5249372484238        672.2755685110699        1122.3368087340493       354.1485114039434        642.0784060756439        1113.8459060493776       325.7344837457783        578.2495595483541        1094.6616172862266       309.1278376555812        470.8528824882343        1050.9875634736072       300.69454855800717       380.0753203717655        951.2540890167418        296.817862399546         333.37972089612197       736.4513438562839        294.9029676903365        312.27009707578355       503.69165596385284       294.18927215761397       302.35295250172334       389.0883549563215        293.6813408222954        297.77533376803416       339.618345045485         293.72000032070474       295.8652546977745        317.9285059565112        293.4999717428859        294.80228608769954       307.79632546462193       293.3965156459433        294.30855633647496       303.38021855702004       293.3482044241976        294.07931812484173       301.3407198020142        293.32571727636275       293.9729025247332        300.3963158166433        293.31526607372786       294.2284984179016        299.9584527650529        293.3104121287533        294.19665955349734       299.75532131768733