% Model:              thermal_sim.mph
% Version:            COMSOL 5.4.0.388
% Date:               Jan 27 2020, 15:31
% Dimension:          3
% Nodes:              39
% Expressions:        140
% Description:        Temperature
% Length unit:        m
% X                       Y                        Z                        T (K) @ 1: p=1E-4 Pa, powfac=0.01 T (K) @ 2: p=1E-4 Pa, powfac=0.03 T (K) @ 3: p=1E-4 Pa, powfac=0.1 T (K) @ 4: p=1E-4 Pa, powfac=0.3 T (K) @ 5: p=1E-4 Pa, powfac=1 T (K) @ 6: p=2.1544E-4 Pa, powfac=0.01 T (K) @ 7: p=2.1544E-4 Pa, powfac=0.03 T (K) @ 8: p=2.1544E-4 Pa, powfac=0.1 T (K) @ 9: p=2.1544E-4 Pa, powfac=0.3 T (K) @ 10: p=2.1544E-4 Pa, powfac=1 T (K) @ 11: p=4.6416E-4 Pa, powfac=0.01 T (K) @ 12: p=4.6416E-4 Pa, powfac=0.03 T (K) @ 13: p=4.6416E-4 Pa, powfac=0.1 T (K) @ 14: p=4.6416E-4 Pa, powfac=0.3 T (K) @ 15: p=4.6416E-4 Pa, powfac=1 T (K) @ 16: p=0.001 Pa, powfac=0.01 T (K) @ 17: p=0.001 Pa, powfac=0.03 T (K) @ 18: p=0.001 Pa, powfac=0.1 T (K) @ 19: p=0.001 Pa, powfac=0.3 T (K) @ 20: p=0.001 Pa, powfac=1 T (K) @ 21: p=0.0021544 Pa, powfac=0.01 T (K) @ 22: p=0.0021544 Pa, powfac=0.03 T (K) @ 23: p=0.0021544 Pa, powfac=0.1 T (K) @ 24: p=0.0021544 Pa, powfac=0.3 T (K) @ 25: p=0.0021544 Pa, powfac=1 T (K) @ 26: p=0.0046416 Pa, powfac=0.01 T (K) @ 27: p=0.0046416 Pa, powfac=0.03 T (K) @ 28: p=0.0046416 Pa, powfac=0.1 T (K) @ 29: p=0.0046416 Pa, powfac=0.3 T (K) @ 30: p=0.0046416 Pa, powfac=1 T (K) @ 31: p=0.01 Pa, powfac=0.01 T (K) @ 32: p=0.01 Pa, powfac=0.03 T (K) @ 33: p=0.01 Pa, powfac=0.1 T (K) @ 34: p=0.01 Pa, powfac=0.3 T (K) @ 35: p=0.01 Pa, powfac=1 T (K) @ 36: p=0.021544 Pa, powfac=0.01 T (K) @ 37: p=0.021544 Pa, powfac=0.03 T (K) @ 38: p=0.021544 Pa, powfac=0.1 T (K) @ 39: p=0.021544 Pa, powfac=0.3 T (K) @ 40: p=0.021544 Pa, powfac=1 T (K) @ 41: p=0.046416 Pa, powfac=0.01 T (K) @ 42: p=0.046416 Pa, powfac=0.03 T (K) @ 43: p=0.046416 Pa, powfac=0.1 T (K) @ 44: p=0.046416 Pa, powfac=0.3 T (K) @ 45: p=0.046416 Pa, powfac=1 T (K) @ 46: p=0.1 Pa, powfac=0.01 T (K) @ 47: p=0.1 Pa, powfac=0.03 T (K) @ 48: p=0.1 Pa, powfac=0.1 T (K) @ 49: p=0.1 Pa, powfac=0.3 T (K) @ 50: p=0.1 Pa, powfac=1 T (K) @ 51: p=0.21544 Pa, powfac=0.01 T (K) @ 52: p=0.21544 Pa, powfac=0.03 T (K) @ 53: p=0.21544 Pa, powfac=0.1 T (K) @ 54: p=0.21544 Pa, powfac=0.3 T (K) @ 55: p=0.21544 Pa, powfac=1 T (K) @ 56: p=0.46416 Pa, powfac=0.01 T (K) @ 57: p=0.46416 Pa, powfac=0.03 T (K) @ 58: p=0.46416 Pa, powfac=0.1 T (K) @ 59: p=0.46416 Pa, powfac=0.3 T (K) @ 60: p=0.46416 Pa, powfac=1 T (K) @ 61: p=1 Pa, powfac=0.01 T (K) @ 62: p=1 Pa, powfac=0.03 T (K) @ 63: p=1 Pa, powfac=0.1 T (K) @ 64: p=1 Pa, powfac=0.3 T (K) @ 65: p=1 Pa, powfac=1 T (K) @ 66: p=2.1544 Pa, powfac=0.01 T (K) @ 67: p=2.1544 Pa, powfac=0.03 T (K) @ 68: p=2.1544 Pa, powfac=0.1 T (K) @ 69: p=2.1544 Pa, powfac=0.3 T (K) @ 70: p=2.1544 Pa, powfac=1 T (K) @ 71: p=4.6416 Pa, powfac=0.01 T (K) @ 72: p=4.6416 Pa, powfac=0.03 T (K) @ 73: p=4.6416 Pa, powfac=0.1 T (K) @ 74: p=4.6416 Pa, powfac=0.3 T (K) @ 75: p=4.6416 Pa, powfac=1 T (K) @ 76: p=10 Pa, powfac=0.01 T (K) @ 77: p=10 Pa, powfac=0.03 T (K) @ 78: p=10 Pa, powfac=0.1 T (K) @ 79: p=10 Pa, powfac=0.3 T (K) @ 80: p=10 Pa, powfac=1 T (K) @ 81: p=21.544 Pa, powfac=0.01 T (K) @ 82: p=21.544 Pa, powfac=0.03 T (K) @ 83: p=21.544 Pa, powfac=0.1 T (K) @ 84: p=21.544 Pa, powfac=0.3 T (K) @ 85: p=21.544 Pa, powfac=1 T (K) @ 86: p=46.416 Pa, powfac=0.01 T (K) @ 87: p=46.416 Pa, powfac=0.03 T (K) @ 88: p=46.416 Pa, powfac=0.1 T (K) @ 89: p=46.416 Pa, powfac=0.3 T (K) @ 90: p=46.416 Pa, powfac=1 T (K) @ 91: p=100 Pa, powfac=0.01 T (K) @ 92: p=100 Pa, powfac=0.03 T (K) @ 93: p=100 Pa, powfac=0.1 T (K) @ 94: p=100 Pa, powfac=0.3 T (K) @ 95: p=100 Pa, powfac=1 T (K) @ 96: p=215.44 Pa, powfac=0.01 T (K) @ 97: p=215.44 Pa, powfac=0.03 T (K) @ 98: p=215.44 Pa, powfac=0.1 T (K) @ 99: p=215.44 Pa, powfac=0.3 T (K) @ 100: p=215.44 Pa, powfac=1 T (K) @ 101: p=464.16 Pa, powfac=0.01 T (K) @ 102: p=464.16 Pa, powfac=0.03 T (K) @ 103: p=464.16 Pa, powfac=0.1 T (K) @ 104: p=464.16 Pa, powfac=0.3 T (K) @ 105: p=464.16 Pa, powfac=1 T (K) @ 106: p=1000 Pa, powfac=0.01 T (K) @ 107: p=1000 Pa, powfac=0.03 T (K) @ 108: p=1000 Pa, powfac=0.1 T (K) @ 109: p=1000 Pa, powfac=0.3 T (K) @ 110: p=1000 Pa, powfac=1 T (K) @ 111: p=2154.4 Pa, powfac=0.01 T (K) @ 112: p=2154.4 Pa, powfac=0.03 T (K) @ 113: p=2154.4 Pa, powfac=0.1 T (K) @ 114: p=2154.4 Pa, powfac=0.3 T (K) @ 115: p=2154.4 Pa, powfac=1 T (K) @ 116: p=4641.6 Pa, powfac=0.01 T (K) @ 117: p=4641.6 Pa, powfac=0.03 T (K) @ 118: p=4641.6 Pa, powfac=0.1 T (K) @ 119: p=4641.6 Pa, powfac=0.3 T (K) @ 120: p=4641.6 Pa, powfac=1 T (K) @ 121: p=10000 Pa, powfac=0.01 T (K) @ 122: p=10000 Pa, powfac=0.03 T (K) @ 123: p=10000 Pa, powfac=0.1 T (K) @ 124: p=10000 Pa, powfac=0.3 T (K) @ 125: p=10000 Pa, powfac=1 T (K) @ 126: p=21544 Pa, powfac=0.01 T (K) @ 127: p=21544 Pa, powfac=0.03 T (K) @ 128: p=21544 Pa, powfac=0.1 T (K) @ 129: p=21544 Pa, powfac=0.3 T (K) @ 130: p=21544 Pa, powfac=1 T (K) @ 131: p=46416 Pa, powfac=0.01 T (K) @ 132: p=46416 Pa, powfac=0.03 T (K) @ 133: p=46416 Pa, powfac=0.1 T (K) @ 134: p=46416 Pa, powfac=0.3 T (K) @ 135: p=46416 Pa, powfac=1 T (K) @ 136: p=1E5 Pa, powfac=0.01 T (K) @ 137: p=1E5 Pa, powfac=0.03 T (K) @ 138: p=1E5 Pa, powfac=0.1 T (K) @ 139: p=1E5 Pa, powfac=0.3 T (K) @ 140: p=1E5 Pa, powfac=1 a
-9.944681357438954E-6     0                        0                        442.36347750950927       548.6267094461432        699.5989826701181        878.6502050797162        1135.219366105308        442.35552194409          548.6210946698857        699.5955931841603        878.6480998843485        1135.2168501923595       442.338388668763         548.6090032630534        699.5882947622226        878.6435679862379        1135.2114433118368       442.30150597580575       548.5829773542174        699.5725892400638        879.4376629235           1135.1998567144428       442.22218124822723       548.5270170702634        699.5388370613205        879.4000238313233        1135.175178403083        442.05189752247367       548.4069524475457        699.4664990698508        879.3205957315353        1135.1232880195437       441.68772349847586       548.1504396894936        699.3122913766322        879.1566829019876        1135.0170275254645       440.9141353301075        547.6064662849997        699.6151506339157        878.8325207366454        1134.8103014931123       439.2870836793343        546.4643282178265        698.7221453818578        878.2339948885251        1134.441231510762        436.17689285767705       544.326723526061         697.0833733827167        877.9950417608667        1134.4391561673658       429.2570575534166        539.3984738862434        694.1983079084953        875.5508325571193        1133.6404506278736       414.8666675751321        528.5220575292745        688.2060336851063        872.2015384535058        1131.2935885992315       389.04989959994543       505.8149006612299        674.4079933279819        864.282106237086         1127.1597043504341       354.4836696768053        461.2996155989904        644.0381763421234        847.5825424505233        1118.6186508864512       325.9134677524338        396.95825770224127       579.8460434674416        808.7130422274238        1099.3210905382373       309.2158673040656        345.4994253620188        471.8440460611622        722.7195563376877        1055.3900509470354       300.7365579767914        317.85980279347456       380.5613144663528        563.2298565995093        955.0719340529627        296.8386873996371        304.8534602679599        333.6089299762048        421.23000852308695       739.024284237099         294.91344632421965       298.69967153056683       312.38369988323194       352.17065409838546       504.94364390721216       294.1958543735276        296.0144272989278        302.412468612589         321.1461842206826        389.70497948556687       293.68516791069          294.6003696518851        297.80987491183674       307.1256400784063        339.9639992542785        293.72400293124747       294.20498322147967       295.8890396644453        300.96102842028824       318.15610643083363       293.5027706008416        293.7955876818347        294.82022081857224       297.90244569683955       307.9655190389162        293.3987440794454        293.6043771083969        294.32373596117003       296.48604478081717       303.52487110089385       293.3501640661103        293.51536211712414       294.09319536354377       295.8292971885912        301.47380298925793       293.3275508087733        293.4739871696533        293.98616534483295       295.52460449632497       300.52394043498924       293.317040680729         293.4547699629837        294.24167462575895       295.3832082087995        300.08351420195686       293.3121592856237        293.44584737214507       294.2096542256929        295.3175840491088        299.87918507787845
-7.5000000000000044E-6    0                        0                        508.59313838868337       669.1438424192735        903.8853033358131        1189.4475992075643       1608.0449745447993       508.5813189342217        669.1352565337393        903.8799707818184        1189.4442096163375       1608.040848644965        508.55586428244777       669.1167667820008        903.8684883773043        1189.43691271387         1608.0319816768128       508.50106811372046       669.0769685682352        903.8437790167022        1190.7019613754005       1608.0129798331893       508.38321588882667       668.9913939742023        903.7906756432135        1190.6416314969258       1607.972505474816        508.1302247312543        668.8077845141349        903.6768578509832        1190.5143054479324       1607.8873907120546       507.58916476532556       668.4154841043029        903.4341983788241        1190.2514825539831       1607.7130471216565       506.43983165721073       667.583451353902         903.8987749632662        1189.7314370393458       1607.3736702455612       504.0226985718468        665.8362125264096        902.4969157256922        1188.7701983845277       1606.7670212035878       499.3970509740433        662.5602759443933        899.920539532931         1188.3729592034758       1606.7539046445318       489.1322792676181        655.02189701177          895.374745265549         1184.4439749382211       1605.4299074193345       467.8728907880564        638.4230670276254        885.934083955516         1179.0335270808398       1601.5564565581508       430.00520467078644       603.903921070382         864.247966251114         1166.2638301154811       1594.7173278518092       379.92254446149894       536.8352895860755        816.6982703911947        1139.361565296278        1580.5842563228691       339.11546258440313       441.5406247555842        717.0481073119944        1076.9949851108136       1548.6725727620455       315.5566403566401        367.00500926736055       552.5803261986978        940.1168712766873        1476.1295738774254       303.70319731531106       327.7378979553463        417.54129791370235       691.0640641433444        1312.2138382063206       298.2497844700818        309.4447764280387        350.02484639350297       477.00880247391046       964.8416673961036        295.59215685087264       300.86695523553567       319.99737872791513       376.4230451636638        601.6170771896828        294.5911632167434        297.12272593635754       306.04717128337177       332.32218393367486       430.3892023807885        293.89127462986704       295.1642858296115        299.63199733350285       312.62715434959256       358.8048856681114        293.9461017722494        294.6150972121169        296.95779724926683       304.01441584072086       327.99645021805827       293.6409423503381        294.04808283985585       295.4726436231326        299.7566814914724        313.7361352947423        293.4967464528691        293.7826542398615        294.7826478831324        297.7869563523028        307.5493504807096        293.42925126978076       293.658953502223         294.4622204852581        296.8740692864341        304.6973540270433        293.3977991606587        293.6014266132402        294.31345220197545       296.4506318949747        303.3777821145648        293.3831735278669        293.57470090925864       294.6699721689817        296.2541495387717        302.76619060459853       293.37637909779943       293.56229069759695       294.6254471763997        296.1629631008481        302.48250764280914
-9.999999999999999E-6     0                        0                        440.9740385150519        546.114564871623         695.3674825306857        872.2454966012219        1125.5244913306797       440.96616324799845       546.1090113347962        695.364132811728         872.2434175572976        1125.522008073211        440.9492029054005        546.0970518082316        695.3569200194453        872.2389419570525        1125.5166713737422       440.91269248568375       546.0713097684597        695.341398769968         873.0234281219555        1125.505235179286        440.8341684264205        546.0159598802496        695.3080426309797        872.9862514323754        1125.4808772548283       440.66560350429916       545.8972050030745        695.236553551998         872.9077993961265        1125.4296607374913       440.3051054792868        545.6434909724813        695.084156044911         872.7459020587507        1125.3247810581424       439.5393260053505        545.1054546258538        695.3836872497218        872.4257310096465        1125.1207450808474       437.92869437266694       543.9757876164148        694.5011010041242        871.8345938995133        1124.756491950377        434.84999049335556       541.8616344475753        692.8815210725002        871.598845384626         1124.754626825272        427.99970645353756       536.9871828396963        690.0304342842644        869.1848770904412        1123.9665557811932       413.75232276840654       526.228783004783         684.1087172492134        865.8775245768891        1121.650622742838        388.18702217901364       503.765491064711         670.4721615758688        858.0568236498722        1117.5715249599853       353.9459159393605        459.7169993716571        640.4543682967143        841.5649876683173        1109.1437180984258       325.6334592968921        396.0195619031761        576.9903033709026        803.1742916436143        1090.1016303057672       309.0810678410028        345.04432980996114       470.1535224960551        718.2195075283212        1046.7500391933363       300.67342634351843       317.65009894278006       379.78142259888483       560.5661268152991        947.723205446333         296.8085919570156        304.75578193738113       333.26103195615826       420.05740277167274       734.3503117350217        294.898973796423         298.6535302517924        312.22187238840735       351.65743114583466       502.9217180288311        294.18740561666647       295.9908043997097        302.33512475391717       320.90885949780835       388.84655087802815       293.680771816173         294.58835562532664       297.7710820326335        307.00860986695915       339.56430303442073       293.71926791444014       294.19624488020304       295.8662780360504        300.89601530979434       317.94676409315326       293.49982901358527       293.79021120680164       294.8063262915417        297.86295155058525       307.84258452185117       293.3966589958411        293.6005820688372        294.31396255030677       296.45833107100367       303.4390805348381        293.3484818829167        293.5123058057744        294.0853361553942        295.8070378834342        301.40506444606734       293.3260568060738        293.4712747800383        293.9791949637237        295.504874059644         300.4630763168592        293.31563427815126       293.4522174340368        294.2325559920072        295.3646509741686        300.026296418228         293.3107935985076        293.44336909316496       294.20080183780794       295.299571241151         299.8236579185853
9.769926876264224E-6      0                        0                        446.0981970342654        555.3810893906486        710.9745567977168        895.8562034090136        1161.2166443620595       446.09002540215835       555.3753097909995        710.9710602893336        895.8540278497615        1161.2140406033304       446.07242679978276       555.3628634338904        710.9635314177057        895.8493444748847        1161.2084449303732       446.03454239474524       555.336073503245         710.9473299741552        896.6692970714063        1161.1964537375673       445.95306323061305       555.278470364535         710.9125119589703        896.6304137434843        1161.170913561768        445.77815455242666       555.1548806164684        710.8378893448113        896.548359250332         1161.1172104314944       445.4040891630781        554.890835201832         710.6788100209517        896.3790231507516        1161.0072354654474       444.6094894063551        554.3308824625805        710.990628069            896.0441218037333        1160.7932730996629       442.93825499316597       553.1551791019062        710.0695822221315        895.4257148616412        1160.411245914591        439.7433387490733        550.9544557992639        708.3791594759533        895.1781429876432        1160.408608730182        432.6363609823198        545.8814114447822        705.4026505503226        892.6525647158861        1159.5813009177396       417.8612090241663        534.6873605980181        699.2204925505821        889.190426356592         1157.1512463063054       391.3679642253013        511.3238641553482        684.9878546336178        881.0053495072955        1152.8700042404732       355.92740539099634       465.55231747946345       653.6706205429448        863.7468681703899        1144.0243531618094       326.66443491852516       399.4783774326494        587.5189049392243        823.5890081343182        1124.0396528794804       309.57676634220826       346.71902030439134       476.3806917206243        734.8002822457024        1078.5500057257743       300.90502992603473       318.4199539283207        382.6476370182245        570.367970011405         974.7578246005429        296.91846331709144       305.11272507512183       334.53364646573306       424.35433594711276       751.5117762449925        294.9513002051215        298.8205758307969        312.80848704802867       353.52171011285526       510.28987619008103       294.2175447265564        296.0749026082085        302.6103759292455        321.75547179108327       391.91728792312847       293.69599324997154       294.62970056825867       297.9042997922711        307.41173185959417       340.94169970151916       293.73577720362846       294.2256326664692        295.9407855652678        301.11219083448464       318.62181373576175       293.5097401897933        293.8072344757936        294.84822595200507       297.9852266059487        308.20247114004667       293.40342209974045       293.6117999747314        294.34074624819425       296.53735949124444       303.662606672737         293.3537663128938        293.5208188846452        294.10512276033216       295.8661044037045        301.5662478277584        293.33065156292145       293.47853160427275       293.9957428022435        295.55471149224326       300.5955789168059        293.31990829498386       293.45889128878446       294.25856191388937       295.4102150784585        300.14555246096774       293.3149186218921        293.44977243203454       294.2258351574914        295.343154484158         299.9367812707133
9.83874865503917E-6       0                        0                        444.3785492191245        552.2709790529813        705.7343647633568        887.9231581534544        1149.2066558046167       444.370477015918         552.265275312077         705.7309175313604        887.9210150066618        1149.2040925263493       444.353092546307         552.2529923182094        705.723494765805         887.9164014081405        1149.1985838514004       444.31566910604994       552.2265540229847        705.7075216596506        888.7244457638415        1149.1867791014902       444.2351813639332        552.1697069962313        705.6731943884255        888.6861355238518        1149.1616360847386       444.0624009823573        552.0477396620704        705.5996236859854        888.6052907357071        1149.108768295426        443.69288737228663       551.7871611016283        705.442787417479         888.4384525838715        1149.000505024879        442.9079566691088        551.2345627523213        705.7504825180242        888.1084977412053        1148.7898773383345       441.2570541658725        550.0743076354914        704.8423469061194        887.499248320357         1148.4138213339406       438.1011266681609        547.902634848959         703.1757054218342        887.2556492155255        1148.4114454403957       431.08026782612217       542.8962313088281        700.241300901886         884.7675514507255        1147.5973214073726       416.4821768384956        531.8483661339803        694.1465730446538        881.3573973432934        1145.2056088860306       390.30024766474804       508.7869270960714        680.1140322522782        873.2946905400362        1140.9922856795054       355.2621096250664        463.59349432558736       649.2329759210913        856.2936697796666        1132.2870266827383       326.3180802535755        398.31684243426884       583.9832918098913        816.7292237881516        1112.619036706713        309.4100547543492        346.1560551472439        474.28837461214323       729.2277283944827        1067.8477425708247       300.826965685115         318.1606139827022        381.68281648176946       567.0706478463813        965.656172905323         296.8812618575041        304.99196689498217       334.103456233874         422.9037330748192        745.7251725870318        294.93341973470547       298.76356214370566       312.60850214381577       352.88729856539766       507.78890669240997       294.20711482635323       296.04574025948006       302.5148913035795        321.4624283827822        390.8569485560874        293.6905740989237        294.61489444610646       297.85649531839005       307.2674914991194        340.44903784468653       293.72993811601066       294.2148757647812        295.9128018808119        301.03220199897333       318.3646250971346        293.5061186222392        293.8006346669421        294.83120731237875       297.9367957027339        308.05208650942217       293.4008596195294        293.60715556890636       294.3288230941806        296.5034947208115        303.55814562125613       293.3517020128092        293.5170877916418        294.0955659667328        295.8389826754912        301.48286392599283       293.32881993302965       293.47522566342775       293.9872846068374        295.5307156195977        300.52192610242025       293.3181849712415        293.4557829497834        294.24741883887566       295.3876692151588        300.0764050837347        293.3132456362883        293.44675586820944       294.21502120669965       295.32128146120465       299.86972267323563
9.767413071681315E-6      0                        0                        446.16100939738124       555.4946901978254        711.1659615969793        896.1459681589929        1161.655324745127        446.1528341335049        555.4889078273375        711.1624632887122        896.1437914158338        1161.6527195077965       446.1352277096528        555.4764555031744        711.1549305414226        896.139105492285         1161.6471206571246       446.0973264672797        555.4496527285901        711.1387207575528        896.9594930527221        1161.6351226542504       446.01581109017474       555.3920219719116        711.1038848173093        896.9205887920212        1161.6095679717027       445.8408246731988        555.2683729630763        711.029223780713         896.8384901128271        1161.555834329519        445.4665930242183        555.0042009171017        710.8700625263521        896.6690627724709        1161.4457968415772       444.67164009279475       554.4439795492345        711.1820311703965        896.3339807479765        1161.2317126723156       442.999663030268         553.2677119214509        710.2605137604793        895.7152393155632        1160.849467382138        439.8033226717297        551.0659275110919        708.5692223729176        895.4675223310272        1160.8468206537418       432.69319929974074       545.9904490145768        705.5911755293507        892.9405750352224        1160.0190312866853       417.91157996037316       534.7910585468591        699.4058240304473        889.4765378838175        1157.5875761807636       391.40696395519694       511.4165290663645        685.1658773069137        881.2869913101401        1153.3038532906512       355.9517061802981        465.62386603152027       653.8327112587953        864.0191058923064        1144.4530742094107       326.6770859711361        399.52080400246655       587.6480477868245        823.8395706398812        1124.456805673055        309.5828556988195        346.73958333570556       476.4571163122263        735.0038269906807        1078.9409197452212       300.9078813235149        318.42942665563805       382.68287833760616       570.4884089729852        975.0902742138885        296.91982214857273       305.11713592401384       334.54935972097894       424.4073210953211        751.7231394363222        294.95195331245577       298.8226583295414        312.8157917556034        353.5448828160871        510.38122733933756       294.2179256921664        296.07596780075636       302.6138636288352        321.76617558101555       391.95601819147885       293.6961911914804        294.63024138104186       297.9060459125787        307.4170004255286        340.95969481375795       293.7359904838644        294.2260255762319        295.9418077055769        301.1151125302743        318.6312078838056        293.50987247223753       293.80747554235757       294.8488475798538        297.9869956073988        308.2079641334042        293.4035156976481        293.6119696176679        294.3411817568332        296.5385964458339        303.6664222479026        293.3538417141273        293.5209551676483        294.10547183459283       295.86709505994577       301.56929353273915       293.3307184655749        293.4786523580427        293.99605174878275       295.55558797256236       300.59826918121985       293.3199712416149        293.4590048248913        294.25896892913266       295.41103859530875       300.148078158456         293.3149797298575        293.44988261593414       294.2262301510464        295.34395342464336       299.9392306728163