% Model:              thermal_sim.mph
% Version:            COMSOL 5.4.0.388
% Date:               Jan 27 2020, 18:39
% Dimension:          3
% Nodes:              39
% Expressions:        114
% Description:        Temperature
% Length unit:        m
% X                       Y                        Z                        T (K) @ 1: p=0.1 Pa, powfac=0.01 T (K) @ 2: p=0.1 Pa, powfac=0.03 T (K) @ 3: p=0.1 Pa, powfac=0.1 T (K) @ 4: p=0.1 Pa, powfac=0.3 T (K) @ 5: p=0.1 Pa, powfac=0.7 T (K) @ 6: p=0.1 Pa, powfac=1 T (K) @ 7: p=0.21544 Pa, powfac=0.01 T (K) @ 8: p=0.21544 Pa, powfac=0.03 T (K) @ 9: p=0.21544 Pa, powfac=0.1 T (K) @ 10: p=0.21544 Pa, powfac=0.3 T (K) @ 11: p=0.21544 Pa, powfac=0.7 T (K) @ 12: p=0.21544 Pa, powfac=1 T (K) @ 13: p=0.46416 Pa, powfac=0.01 T (K) @ 14: p=0.46416 Pa, powfac=0.03 T (K) @ 15: p=0.46416 Pa, powfac=0.1 T (K) @ 16: p=0.46416 Pa, powfac=0.3 T (K) @ 17: p=0.46416 Pa, powfac=0.7 T (K) @ 18: p=0.46416 Pa, powfac=1 T (K) @ 19: p=1 Pa, powfac=0.01 T (K) @ 20: p=1 Pa, powfac=0.03 T (K) @ 21: p=1 Pa, powfac=0.1 T (K) @ 22: p=1 Pa, powfac=0.3 T (K) @ 23: p=1 Pa, powfac=0.7 T (K) @ 24: p=1 Pa, powfac=1 T (K) @ 25: p=2.1544 Pa, powfac=0.01 T (K) @ 26: p=2.1544 Pa, powfac=0.03 T (K) @ 27: p=2.1544 Pa, powfac=0.1 T (K) @ 28: p=2.1544 Pa, powfac=0.3 T (K) @ 29: p=2.1544 Pa, powfac=0.7 T (K) @ 30: p=2.1544 Pa, powfac=1 T (K) @ 31: p=4.6416 Pa, powfac=0.01 T (K) @ 32: p=4.6416 Pa, powfac=0.03 T (K) @ 33: p=4.6416 Pa, powfac=0.1 T (K) @ 34: p=4.6416 Pa, powfac=0.3 T (K) @ 35: p=4.6416 Pa, powfac=0.7 T (K) @ 36: p=4.6416 Pa, powfac=1 T (K) @ 37: p=10 Pa, powfac=0.01 T (K) @ 38: p=10 Pa, powfac=0.03 T (K) @ 39: p=10 Pa, powfac=0.1 T (K) @ 40: p=10 Pa, powfac=0.3 T (K) @ 41: p=10 Pa, powfac=0.7 T (K) @ 42: p=10 Pa, powfac=1 T (K) @ 43: p=21.544 Pa, powfac=0.01 T (K) @ 44: p=21.544 Pa, powfac=0.03 T (K) @ 45: p=21.544 Pa, powfac=0.1 T (K) @ 46: p=21.544 Pa, powfac=0.3 T (K) @ 47: p=21.544 Pa, powfac=0.7 T (K) @ 48: p=21.544 Pa, powfac=1 T (K) @ 49: p=46.416 Pa, powfac=0.01 T (K) @ 50: p=46.416 Pa, powfac=0.03 T (K) @ 51: p=46.416 Pa, powfac=0.1 T (K) @ 52: p=46.416 Pa, powfac=0.3 T (K) @ 53: p=46.416 Pa, powfac=0.7 T (K) @ 54: p=46.416 Pa, powfac=1 T (K) @ 55: p=100 Pa, powfac=0.01 T (K) @ 56: p=100 Pa, powfac=0.03 T (K) @ 57: p=100 Pa, powfac=0.1 T (K) @ 58: p=100 Pa, powfac=0.3 T (K) @ 59: p=100 Pa, powfac=0.7 T (K) @ 60: p=100 Pa, powfac=1 T (K) @ 61: p=215.44 Pa, powfac=0.01 T (K) @ 62: p=215.44 Pa, powfac=0.03 T (K) @ 63: p=215.44 Pa, powfac=0.1 T (K) @ 64: p=215.44 Pa, powfac=0.3 T (K) @ 65: p=215.44 Pa, powfac=0.7 T (K) @ 66: p=215.44 Pa, powfac=1 T (K) @ 67: p=464.16 Pa, powfac=0.01 T (K) @ 68: p=464.16 Pa, powfac=0.03 T (K) @ 69: p=464.16 Pa, powfac=0.1 T (K) @ 70: p=464.16 Pa, powfac=0.3 T (K) @ 71: p=464.16 Pa, powfac=0.7 T (K) @ 72: p=464.16 Pa, powfac=1 T (K) @ 73: p=1000 Pa, powfac=0.01 T (K) @ 74: p=1000 Pa, powfac=0.03 T (K) @ 75: p=1000 Pa, powfac=0.1 T (K) @ 76: p=1000 Pa, powfac=0.3 T (K) @ 77: p=1000 Pa, powfac=0.7 T (K) @ 78: p=1000 Pa, powfac=1 T (K) @ 79: p=2154.4 Pa, powfac=0.01 T (K) @ 80: p=2154.4 Pa, powfac=0.03 T (K) @ 81: p=2154.4 Pa, powfac=0.1 T (K) @ 82: p=2154.4 Pa, powfac=0.3 T (K) @ 83: p=2154.4 Pa, powfac=0.7 T (K) @ 84: p=2154.4 Pa, powfac=1 T (K) @ 85: p=4641.6 Pa, powfac=0.01 T (K) @ 86: p=4641.6 Pa, powfac=0.03 T (K) @ 87: p=4641.6 Pa, powfac=0.1 T (K) @ 88: p=4641.6 Pa, powfac=0.3 T (K) @ 89: p=4641.6 Pa, powfac=0.7 T (K) @ 90: p=4641.6 Pa, powfac=1 T (K) @ 91: p=10000 Pa, powfac=0.01 T (K) @ 92: p=10000 Pa, powfac=0.03 T (K) @ 93: p=10000 Pa, powfac=0.1 T (K) @ 94: p=10000 Pa, powfac=0.3 T (K) @ 95: p=10000 Pa, powfac=0.7 T (K) @ 96: p=10000 Pa, powfac=1 T (K) @ 97: p=21544 Pa, powfac=0.01 T (K) @ 98: p=21544 Pa, powfac=0.03 T (K) @ 99: p=21544 Pa, powfac=0.1 T (K) @ 100: p=21544 Pa, powfac=0.3 T (K) @ 101: p=21544 Pa, powfac=0.7 T (K) @ 102: p=21544 Pa, powfac=1 T (K) @ 103: p=46416 Pa, powfac=0.01 T (K) @ 104: p=46416 Pa, powfac=0.03 T (K) @ 105: p=46416 Pa, powfac=0.1 T (K) @ 106: p=46416 Pa, powfac=0.3 T (K) @ 107: p=46416 Pa, powfac=0.7 T (K) @ 108: p=46416 Pa, powfac=1 T (K) @ 109: p=1E5 Pa, powfac=0.01 T (K) @ 110: p=1E5 Pa, powfac=0.03 T (K) @ 111: p=1E5 Pa, powfac=0.1 T (K) @ 112: p=1E5 Pa, powfac=0.3 T (K) @ 113: p=1E5 Pa, powfac=0.7 T (K) @ 114: p=1E5 Pa, powfac=1 a
-9.944681357438954E-6     0                        0                        436.17689285738385       544.3267235260258        697.0833733826431        877.9950417596713        1050.3761617082334       1134.4391561671073       429.25705755330756       539.3984738865037        694.198307908571         875.550832557022         1049.3408138300372       1133.6404506286963       414.86666757511176       528.5220575292974        688.2060336851448        872.2015384535898        1047.3888793916456       1131.2935885995955       389.04989959996044       505.8149006611742        674.4079933280434        864.2821062371816        1042.3241645623516       1127.159704350462        354.48366967679453       461.2996155990022        644.0381763421192        847.582542450549         1032.0877566341292       1118.6186508864344       325.913467752417         396.95825770223587       579.8460434674828        808.7130422274025        1007.4698055962505       1099.321090538167        309.2158673040497        345.49942536201144       471.8440460611679        722.719556337689         953.5265232891481        1055.390050947045        300.7365579767917        317.85980279347405       380.56131446635          563.2298565995056        830.4824116165969        955.0719340529571        296.838687399637         304.85346026795935       333.6089299762066        421.23000852308775       607.7535014206155        739.024284237099         294.9134463242194        298.6996715305667        312.38369988323245       352.1706540983843        436.87049368400176       504.94364390721273       294.19585437352805       296.0144272989281        302.41246861258907       321.14618422068236       359.355519575892         389.7049794855667        293.68516791069004       294.6003696518851        297.80987491183674       307.1256400784064        325.7273316894801        339.96399925427846       293.72400293124724       294.2049832214798        295.8890396644453        300.96102842028847       310.36560221448764       318.15610643083363       293.5027706008416        293.7955876818347        294.82022081857224       297.90244569683944       303.58925501393605       307.96551903891645       293.39874407944535       293.6043771083969        294.32373596117003       296.4860447808172        300.46744618053026       303.5248711008939        293.3501640661103        293.51536211712414       294.09319536354377       295.8292971885912        299.02347243240547       301.47380298925793       293.3275508087733        293.4739871696533        293.98616534483295       295.52460449632497       298.3543121326255        300.52394043498924       293.317040680729         293.4547699629837        294.24167462575895       295.3832082087995        298.0439435103783        300.08351420195675       293.3121592856237        293.44584737214507       294.20965422569293       295.3175840491088        297.8999318110691        299.87918507787845
-7.5000000000000044E-6    0                        0                        499.3970509736156        662.5602759443401        899.920539532817         1188.3729592015713       1468.6127408343862       1606.75390464411         489.13227926745657       655.021897012162         895.3747452656664        1184.443974938066        1466.9109742025685       1605.4299074206765       467.87289078802723       638.4230670276596        885.9340839555759        1179.0335270809735       1463.6964664089385       1601.5564565587447       430.0052046708076        603.9039210702992        864.2479662512088        1166.2638301156333       1455.3808970005348       1594.7173278518546       379.92254446148536       536.8352895860935        816.6982703911882        1139.3615652963188       1438.5684755208101       1580.5842563228416       339.1154625843804        441.54062475557595       717.0481073120568        1076.9949851107797       1398.2480952302953       1548.6725727619314       315.55664035661886       367.0050092673498        552.5803261987063        940.1168712766892        1310.0495059440827       1476.1295738774402       303.70319731531146       327.73789795534583       417.5412979136979        691.0640641433389        1111.159309703427        1312.2138382063117       298.24978447008164       309.44477642803787       350.0248463935056        477.0088024739116        759.4576035357846        964.8416673961037        295.59215685087236       300.8669552355355        319.99737872791576       376.42304516366227       499.89855103733413       601.6170771896838        294.591163216744         297.12272593635805       306.0471712833718        332.3221839336746        386.63175365551893       430.3892023807882        293.89127462986704       295.1642858296115        299.63199733350285       312.6271543495927        338.7183897631501        358.80488566811135       293.94610177224905       294.61509721211695       296.9577972492668        304.0144158407212        317.1206029575446        327.99645021805827       293.64094235033804       294.0480828398559        295.47264362313257       299.75668149147225       307.65809195317445       313.73613529474267       293.49674645286905       293.7826542398615        294.7826478831324        297.78695635230287       303.31182129588393       307.5493504807096        293.42925126978076       293.658953502223         294.4622204852581        296.8740692864341        301.3043039068429        304.6973540270432        293.39779916065874       293.6014266132403        294.31345220197545       296.45063189497466       300.3745952300528        303.3777821145648        293.38317352786686       293.5747009092586        294.6699721689817        296.2541495387716        299.9435095782887        302.7661906045985        293.3763790977994        293.56229069759695       294.62544717639975       296.1629631008481        299.7435128090618        302.48250764280914
-9.999999999999999E-6     0                        0                        434.8499904930652        541.8616344475405        692.8815210724274        871.598845383445         1041.7881847126969       1124.7546268250167       427.99970645342955       536.9871828399538        690.0304342843392        869.1848770903449        1040.7663500702668       1123.9665557820051       413.7523227683863        526.2287830048056        684.1087172492515        865.8775245769721        1038.840008754092        1121.6506227431976       388.18702217902853       503.76549106465586       670.4721615759297        858.0568236499665        1033.8412261133608       1117.571524960013        353.9459159393498        459.71699937166886       640.4543682967101        841.5649876683426        1023.7381835425979       1109.1437180984092       325.63345929687534       396.0195619031707        576.9903033709434        803.1742916435933        999.4388532688345        1090.101630305698        309.08106784098703       345.04432980995375       470.1535224960608        718.2195075283225        946.1907492298208        1046.7500391933459       300.67342634351877       317.6500989427796        379.78142259888205       560.5661268152954        824.6897842703365        947.7232054463276        296.80859195701555       304.75578193738056       333.2610319561601        420.0574027716735        604.5983961615286        734.3503117350217        294.8989737964228        298.6535302517923        312.2218723884078        351.6574311458336        435.54653835205517       502.92171802883166       294.1874056166669        295.9908043997101        302.33512475391717       320.9088594978081        358.77847934736747       388.846550878028         293.68077181617303       294.5883556253266        297.7710820326335        307.00860986695926       325.4514223032387        339.56430303442073       293.71926791443997       294.19624488020315       295.8662780360504        300.89601530979456       310.2218415153469        317.94676409315326       293.49982901358527       293.79021120680164       294.8063262915417        297.8629515505852        303.5025798692626        307.8425845218514        293.39665899584105       293.6005820688372        294.31396255030677       296.4583310710037        300.40682660222933       303.4390805348381        293.3484818829167        293.5123058057744        294.0853361553942        295.8070378834342        298.9748520227474        301.40506444606734       293.32605680607384       293.4712747800383        293.9791949637237        295.504874059644         298.31124102033357       300.4630763168592        293.31563427815126       293.4522174340368        294.2325559920072        295.3646509741687        298.00344384108246       300.02629641822796       293.3107935985076        293.44336909316496       294.20080183780794       295.299571241151         297.8606247776901        299.8236579185853
9.769926876264224E-6      0                        0                        439.74333874877266       550.9544557992278        708.3791594758776        895.1781429864088        1073.4214773362369       1160.4086087299145       432.6363609822078        545.8814114450496        705.4026505504005        892.6525647157854        1072.3497802077143       1159.5813009185904       417.86120902414547       534.6873605980416        699.2204925506219        889.1904263566787        1070.3290049666793       1157.151246306682        391.3679642253166        511.32386415529106       684.9878546336811        881.005349507394         1065.0869356449712       1152.870004240502        355.92740539098554       465.5523174794756        653.6706205429405        863.7468681704165        1054.491782247685        1144.0243531617919       326.6644349185079        399.47837743264375       587.5189049392667        823.5890081342961        1029.016715215652        1124.0396528794079       309.57676634219206       346.7190203043837        476.3806917206303        734.8002822457037        973.2032696429229        1078.550005725784        300.905029926035         318.4199539283203        382.64763701822153       570.3679700114012        846.0069214288459        974.7578246005372        296.9184633170914        305.11272507512126       334.53364646573493       424.35433594711355       616.1784660317662        751.5117762449925        294.95130020512136       298.8205758307967        312.8084870480291        353.5217101128541        440.364730907172         510.2898761900817        294.2175447265568        296.0749026082089        302.6103759292456        321.75547179108304       360.8392520704848        391.91728792312824       293.69599324997154       294.62970056825867       297.9042997922711        307.4117318595943        326.4008852529468        340.94169970151916       293.73577720362823       294.2256326664693        295.94078556526773       301.11219083448486       310.6861868331411        318.62181373576175       293.5097401897933        293.8072344757937        294.848225952005         297.9852266059486        303.7568054605742        308.2024711400469        293.40342209974045       293.6117999747315        294.3407462481943        296.5373594912445        300.56544161028773       303.66260667273707       293.3537663128938        293.5208188846452        294.10512276033216       295.8661044037045        299.0896134068632        301.5662478277584        293.3306515629215        293.47853160427275       293.9957428022435        295.55471149224326       298.4057958716401        300.5955789168059        293.31990829498386       293.45889128878446       294.25856191388937       295.4102150784585        298.0886590278284        300.14555246096774       293.31491862189205       293.44977243203454       294.22583515749153       295.343154484158         297.9415144803978        299.9367812707133
9.83874865503917E-6       0                        0                        438.10112666786364       547.9026348489233        703.1757054217594        887.2556492143091        1062.7830321337015       1148.4114454401324       431.0802678260115        542.8962313090923        700.241300901963         884.7675514506261        1061.7280864770585       1147.5973214082103       416.48217683847497       531.8483661340035        694.1465730446929        881.3573973433789        1059.7390377938293       1145.2056088864013       390.3002476647633        508.786927096015         680.1140322523406        873.2946905401333        1054.5786995742465       1140.9922856795338       355.2621096250556        463.5934943255994        649.2329759210871        856.2936697796929        1044.1488692503754       1132.287026682721        326.31808025355843       398.3168424342634        583.983291809933         816.72922378813          1019.0687638477206       1112.6190367066415       309.41005475433315       346.1560551472364        474.2883746121491        729.227728394484         964.1170619021998        1067.8477425708345       300.8269656851152        318.1606139827019        381.68281648176657       567.0706478463776        838.8333601324701        965.6561729053175        296.8812618575041        304.99196689498154       334.1034562338758        422.90373307482          612.2732030323426        745.7251725870318        294.9334197347053        298.76356214370554       312.6085021438161        352.8872985653965        438.72750626624025       507.78890669241054       294.2071148263537        296.04574025948045       302.5148913035795        321.462428382782         360.1266088385469        390.85694855608716       293.6905740989237        294.61489444610646       297.85649531839005       307.2674914991195        326.0608327681452        340.44903784468653       293.72993811601043       294.21487576478125       295.91280188081186       301.0322019989736        310.5095543462209        318.3646250971346        293.5061186222392        293.80063466694213       294.8312073123787        297.9367957027338        303.6507683542427        308.0520865094224        293.40085961952934       293.6071555689064        294.3288230941807        296.5034947208115        300.4916191509565        303.55814562125624       293.3517020128092        293.5170877916418        294.0955659667328        295.8389826754912        299.0306229482715        301.48286392599283       293.32881993302965       293.47522566342775       293.9872846068374        295.5307156195977        298.3536634119948        300.52192610242025       293.3181849712415        293.4557829497834        294.24741883887566       295.3876692151588        298.03970400264245       300.07640508373464       293.31324563628823       293.44675586820944       294.21502120669976       295.32128146120465       297.8940330357078        299.86972267323563
9.767413071681315E-6      0                        0                        439.80332267142876       551.0659275110559        708.5692223728418        895.4675223297922        1073.810060322338        1160.8468206534742       432.69319929962865       545.9904490148444        705.5911755294287        892.9405750351216        1072.7377513246145       1160.0190312875366       417.91157996035236       534.7910585468826        699.4058240304871        889.4765378839045        1070.7158172299748       1157.5875761811403       391.4069639552123        511.41652906630725       685.1658773069771        881.2869913102387        1065.4707625739327       1153.3038532906803       355.95170618028726       465.6238660315324        653.8327112587909        864.0191058923331        1054.8695705373234       1144.4530742093934       326.6770859711188        399.5208040024609        587.648047786867         823.8395706398593        1029.3800770203654       1124.4568056729825       309.5828556988033        346.739583335698         476.4571163122322        735.003826990682         973.535155145833         1078.940919745231        300.9078813235152        318.42942665563766       382.68287833760326       570.4884089729815        846.2689450438062        975.0902742138828        296.9198221485727        305.11713592401327       334.5493597209808        424.4073210953219        616.3211108195087        751.7231394363222        294.95195331245554       298.82265832954124       312.81579175560387       353.54488281608604       440.424532657125         510.381227339338         294.2179256921668        296.07596780075676       302.61386362883525       321.7661755810153        360.8652822872898        391.9560181914787        293.69619119148047       294.63024138104186       297.9060459125787        307.41700042552867       326.4133061102675        340.95969481375795       293.7359904838641        294.2260255762319        295.9418077055768        301.1151125302746        310.6926385634366        318.6312078838056        293.50987247223753       293.8074755423576        294.8488475798537        297.98699560739874       303.760678603184         308.2079641334044        293.40351569764806       293.61196961766797       294.3411817568332        296.53859644583395       300.568138071203         303.66642224790263       293.3538417141273        293.5209551676483        294.10547183459283       295.86709505994577       299.09176810974634       301.56929353273915       293.33071846557493       293.4786523580427        293.99605174878275       295.55558797256236       298.4077000772318        300.59826918121985       293.3199712416149        293.4590048248913        294.25896892913266       295.41103859530875       298.0904471735122        300.1480781584559        293.31497972985744       293.44988261593414       294.2262301510465        295.34395342464336       297.94324880164595       299.9392306728163
8.85378565246668E-6       0                        0                        460.2015097232264        588.9677875846032        773.1850290540926        993.838786143652         1205.896499841836        1309.7996047780898       452.0219095023558        583.0648624750115        769.6842574331843        990.8465520725904        1204.6162491762552       1308.8081641969143       435.0413839686545        570.0503362121033        762.4134628405095        986.7371853806184        1202.2004844271974       1305.900761197678        404.6703769450713        542.925193217799         745.6892941564668        977.0285364217459        1195.9408713106195       1300.7739526969754       364.21679691541146       489.95381487091396       708.9408671093514        956.5645243310082        1183.2874639376441       1290.1804691426014       330.9802546851081        413.9494458509821        631.5568576948369        909.0182320298209        1152.8951352706813       1266.2528430673206       311.6542259573715        353.7335837117684        502.4448262471357        804.2021436193567        1086.353042092489        1211.8200237757687       301.8778458098311        321.6515909603073        394.6683880876699        611.4388795298689        935.3433925469876        1088.1000325026334       297.3820817844581        306.61757524123243       339.8940434362378        442.4262293710913        664.8200261430654        823.5795709458458        295.17413536085496       299.5310816063005        315.3005987660648        361.42658446608385       460.7613418580614        541.44412767254          294.3475361258312        296.43833976283565       303.8003098243196        325.4071991434596        369.7189590276191        405.1285394314406        293.76353242760393       294.8142255419042        298.50006548367435       309.20929341113856       330.6385429452054        347.0809619655437        293.808549127555         294.3596962368133        296.2895494028695        302.10908361892547       312.88755698555394       321.8271261801848        293.5548750623062        293.8894904438099        295.06034338620634       298.5888525623475        305.0784647628508        310.0768879239864        293.435358224954         293.66968737441846       294.48936370816705       296.9594636845843        301.4856502471264        304.9647407439514        293.37949408260516       293.5673245376943        294.2242505721068        296.20417680542243       299.82498598363986       302.60571968107735       293.3534798126073        293.5197390120792        294.10117982689053       295.8538293022969        299.0557033440065        301.5137809147253        293.34138684748865       293.49763618635177       294.3974523983874        295.6912627412274        298.6989687633675        301.007606832444         293.3357698684311        293.487373629793         294.36062410167006       295.6158171382567        298.5334601513572        300.77280477748405
8.562732961252483E-6      0                        0                        466.30148954206084       600.2779318110271        792.4259092953915        1023.0798758515566       1245.1112818342554       1353.9999754197095       457.803021868594         594.1290193861045        788.7701313296877        1019.949886891287        1243.7695647308267       1352.960188386483        440.16661736471343       580.5747713137647        781.1774605607286        1015.6495251866463       1241.2373999997344       1349.912140487501        408.6415046497827        552.3340029413431        763.7164831892991        1005.4912171077777       1234.6778668383147       1344.5362331135987       366.69396958847597       497.22552064710794       725.3614122784142        984.0810725750006        1221.4178015984712       1333.4278528413183       332.27130838461005       418.26859176459624       644.6523036049497        934.3533869389277        1189.575862760667        1308.3386189529692       312.2761379977587        355.83049612675364       510.2104662403457        824.8023836083568        1119.8706730468377       1251.2710239498795       302.169160447105         322.6185920411208        398.2580476507799        623.6564735477513        961.8341586861698        1121.675158012866        297.52101758501726       307.06817306828293       341.4971939615901        447.81749210444576       679.2808061142453        844.9706362160777        295.24090667615906       299.74387303206356       316.046596387673         363.7896694381109        466.8446747900642        550.7231220770294        294.3865145512271        296.5472261812787        304.1566350155672        326.5000193527363        372.37326812782015       409.07442835232627       293.78377161098757       294.8695025627041        298.678498825522         309.7475328268639        331.9068120073736        348.9177270553316        293.83035220454065       294.3998579508455        296.39401885300487       302.40766784379076       313.5468346120366        322.7869655892836        293.56839210456604       293.9141280128929        295.12388452766925       298.7696737649876        305.4744209806384        310.63845844611836       293.4449206718248        293.6870250777174        294.5338856995409        297.0859211776218        301.7613941918051        305.35496029640916       293.38719695883117       293.58125319872715       294.25994006822503       296.3054661101448        300.04537127188377       302.9172732362773        293.36031432776696       293.53208085554303       294.13276878460766       295.94345103662585       299.2504893982715        301.78901022300107       293.3478171760756        293.50924053354476       294.43905125248557       295.7754720751599        298.8818936578766        301.2660171129939        293.3420123468202        293.49863545554615       294.4009945668071        295.6975149628071        298.7108841379039        301.02341729261923