% Model:              thermal_sim_1064nm_10um.mph
% Version:            COMSOL 5.4.0.388
% Date:               Jan 13 2020, 19:07
% Dimension:          3
% Nodes:              59
% Expressions:        84
% Description:        Temperature
% Length unit:        m
% X                       Y                        Z                        T (K) @ 1: p=1E-4 Pa, powfac=0.5 T (K) @ 2: p=1E-4 Pa, powfac=1 T (K) @ 3: p=1E-4 Pa, powfac=1.5 T (K) @ 4: p=2.1544E-4 Pa, powfac=0.5 T (K) @ 5: p=2.1544E-4 Pa, powfac=1 T (K) @ 6: p=2.1544E-4 Pa, powfac=1.5 T (K) @ 7: p=4.6416E-4 Pa, powfac=0.5 T (K) @ 8: p=4.6416E-4 Pa, powfac=1 T (K) @ 9: p=4.6416E-4 Pa, powfac=1.5 T (K) @ 10: p=0.001 Pa, powfac=0.5 T (K) @ 11: p=0.001 Pa, powfac=1 T (K) @ 12: p=0.001 Pa, powfac=1.5 T (K) @ 13: p=0.0021544 Pa, powfac=0.5 T (K) @ 14: p=0.0021544 Pa, powfac=1 T (K) @ 15: p=0.0021544 Pa, powfac=1.5 T (K) @ 16: p=0.0046416 Pa, powfac=0.5 T (K) @ 17: p=0.0046416 Pa, powfac=1 T (K) @ 18: p=0.0046416 Pa, powfac=1.5 T (K) @ 19: p=0.01 Pa, powfac=0.5 T (K) @ 20: p=0.01 Pa, powfac=1 T (K) @ 21: p=0.01 Pa, powfac=1.5 T (K) @ 22: p=0.021544 Pa, powfac=0.5 T (K) @ 23: p=0.021544 Pa, powfac=1 T (K) @ 24: p=0.021544 Pa, powfac=1.5 T (K) @ 25: p=0.046416 Pa, powfac=0.5 T (K) @ 26: p=0.046416 Pa, powfac=1 T (K) @ 27: p=0.046416 Pa, powfac=1.5 T (K) @ 28: p=0.1 Pa, powfac=0.5 T (K) @ 29: p=0.1 Pa, powfac=1 T (K) @ 30: p=0.1 Pa, powfac=1.5 T (K) @ 31: p=0.21544 Pa, powfac=0.5 T (K) @ 32: p=0.21544 Pa, powfac=1 T (K) @ 33: p=0.21544 Pa, powfac=1.5 T (K) @ 34: p=0.46416 Pa, powfac=0.5 T (K) @ 35: p=0.46416 Pa, powfac=1 T (K) @ 36: p=0.46416 Pa, powfac=1.5 T (K) @ 37: p=1 Pa, powfac=0.5 T (K) @ 38: p=1 Pa, powfac=1 T (K) @ 39: p=1 Pa, powfac=1.5 T (K) @ 40: p=2.1544 Pa, powfac=0.5 T (K) @ 41: p=2.1544 Pa, powfac=1 T (K) @ 42: p=2.1544 Pa, powfac=1.5 T (K) @ 43: p=4.6416 Pa, powfac=0.5 T (K) @ 44: p=4.6416 Pa, powfac=1 T (K) @ 45: p=4.6416 Pa, powfac=1.5 T (K) @ 46: p=10 Pa, powfac=0.5 T (K) @ 47: p=10 Pa, powfac=1 T (K) @ 48: p=10 Pa, powfac=1.5 T (K) @ 49: p=21.544 Pa, powfac=0.5 T (K) @ 50: p=21.544 Pa, powfac=1 T (K) @ 51: p=21.544 Pa, powfac=1.5 T (K) @ 52: p=46.416 Pa, powfac=0.5 T (K) @ 53: p=46.416 Pa, powfac=1 T (K) @ 54: p=46.416 Pa, powfac=1.5 T (K) @ 55: p=100 Pa, powfac=0.5 T (K) @ 56: p=100 Pa, powfac=1 T (K) @ 57: p=100 Pa, powfac=1.5 T (K) @ 58: p=215.44 Pa, powfac=0.5 T (K) @ 59: p=215.44 Pa, powfac=1 T (K) @ 60: p=215.44 Pa, powfac=1.5 T (K) @ 61: p=464.16 Pa, powfac=0.5 T (K) @ 62: p=464.16 Pa, powfac=1 T (K) @ 63: p=464.16 Pa, powfac=1.5 T (K) @ 64: p=1000 Pa, powfac=0.5 T (K) @ 65: p=1000 Pa, powfac=1 T (K) @ 66: p=1000 Pa, powfac=1.5 T (K) @ 67: p=2154.4 Pa, powfac=0.5 T (K) @ 68: p=2154.4 Pa, powfac=1 T (K) @ 69: p=2154.4 Pa, powfac=1.5 T (K) @ 70: p=4641.6 Pa, powfac=0.5 T (K) @ 71: p=4641.6 Pa, powfac=1 T (K) @ 72: p=4641.6 Pa, powfac=1.5 T (K) @ 73: p=10000 Pa, powfac=0.5 T (K) @ 74: p=10000 Pa, powfac=1 T (K) @ 75: p=10000 Pa, powfac=1.5 T (K) @ 76: p=21544 Pa, powfac=0.5 T (K) @ 77: p=21544 Pa, powfac=1 T (K) @ 78: p=21544 Pa, powfac=1.5 T (K) @ 79: p=46416 Pa, powfac=0.5 T (K) @ 80: p=46416 Pa, powfac=1 T (K) @ 81: p=46416 Pa, powfac=1.5 T (K) @ 82: p=1E5 Pa, powfac=0.5 T (K) @ 83: p=1E5 Pa, powfac=1 T (K) @ 84: p=1E5 Pa, powfac=1.5 a
-6.177737394988288E-6     0                        0                        593.8761756107331        693.144327407252         758.6132309900374        591.0984072946558        690.9949150264227        756.7623060296384        584.7118035110715        685.8427308773386        753.1370224517377        571.8450972170272        675.7570387351147        744.6008103205029        543.9021383543809        653.7328286958116        725.6904318107889        491.6984056705897        607.3747401999202        685.1737076997068        417.27477165907453       521.3413728535883        603.3207859997879        356.8093109624854        421.5333217001787        482.54019087154956       323.70137728968604       355.37052595602137       387.62501891416827       307.56445599828606       322.53129966954225       337.5400054676339        299.72734369094513       307.0094033445032        314.0757690326092        296.2918039425727        299.5495304007526        302.80869289554744       294.4281913974389        296.2920373210552        297.89117783157883       293.8127020451765        294.5036341157347        295.607364548399         293.52681685798007       293.91968545201195       294.31255404604383       293.39407749011065       293.64855222866174       293.90302696721284       293.3324560156562        293.52268430544876       293.7129125952412        293.3038518524961        293.46425748917335       293.62466312585053       293.29057454320963       293.4371372793927        293.58370001557586       293.2844116688769        293.424549002608         293.56468633633915       293.2815510959084        293.41870600106455       293.55586090622074       293.2802233312228        293.4159939111486        293.55176449107427       293.279607036516         293.41473506861604       293.5498631007161        293.27932097765193       293.4141507652613        293.54898055287066       293.2791882008458        293.4138795555802        293.5485709103146        293.2791265713023        293.41375367117837       293.5483807710544        293.2790979654003        293.4136952408109        293.54829251622147       293.2790846877163        293.41366811983585       293.5482515519555
-5.000000000000003E-6     0                        0                        679.8621616491715        810.0737267788635        896.3874846350108        676.2320138793397        807.2442937116195        893.9433984966466        667.8926894973487        800.4666857859639        889.155790113701         651.0992273611564        787.1993540399674        877.8875912644821        614.708853658413         758.2594434549671        852.9408480572476        546.8702087105021        697.4834897888893        799.5675721522215        451.14452137651654       585.2514122444429        692.1291520390947        373.8930851855098        456.59864321514436       535.1258217341083        331.8340121850837        372.05800740602575       413.18558104749854       311.38740195424293       330.34806667503244       349.3892359256248        301.4685395042254        310.6835476371736        319.6303757701282        297.12301267043244       301.24315934322533       305.36572096179725       294.7662617689424        297.12309027426306       299.1452165889026        293.98798639641967       294.8616695439167        296.2570787076794        293.6264885705765        294.1232746219907        294.62006067340496       293.4586412337992        293.78042992509455       294.1022186163899        293.38072154378415       293.6212712986185        293.86182105345296       293.34455186344917       293.5473911723351        293.7502304812211        293.32776283025856       293.5130979225998        293.69843301494103       293.3199699314262        293.4971801611955        293.6743903909648        293.3163527623102        293.489791737959         293.6632307136079        293.3146738155466        293.4863623242742        293.65805083300177       293.31389451628746       293.4847705289889        293.6556465416904        293.313532797354         293.4840316825369        293.65453056771975       293.3133649022419        293.4836887402786        293.65401257831525       293.31328697222204       293.4835295605583        293.6537721488945        293.3132508003085        293.48345567587177       293.65366055143505       293.31323401079294       293.4834213816371        293.65360875248115
-6.336126535878585E-6     0                        0                        585.8508922715263        682.2851374552233        745.8479718987039        583.1513804939909        680.1979088656875        744.0512973514334        576.9441407997775        675.1943483820058        740.5323740054117        564.4383132987024        665.3996209571052        732.2460016866266        537.2730747762909        644.0081298476393        713.8874486247928        486.5114524574187        598.9706109018847        674.5460783481944        414.07476169618565       515.345180741216         595.0347561725684        355.18775627370997       418.22126291057435       477.5953915626968        322.9277053291039        353.7863336996665        385.20441225569857       307.2004055924787        321.7875674869632        336.41365277792755       299.5614512691663        306.6594839948643        313.5469466865384        296.21259785996136       299.3881581494748        302.56507712529486       294.39597443345576       296.2128411813904        297.77167351066294       293.7959983761           294.469515233185         295.54544385562053       293.5173189458317        293.9002850375599        294.2832511292881        293.3879252997466        293.6359857796984        293.88404625965023       293.3278570104656        293.51329038965383       293.698723768842         293.2999738235775        293.4563362381433        293.6126986527091        293.28703117298187       293.4298996015611        293.57276803014037       293.2810236358622        293.41762861626705       293.5542335966719        293.27823516456095       293.4119328894491        293.54563061433726       293.2769408666169        293.4092891586341        293.54163745065125       293.2763401058195        293.40806204563495       293.53978398545036       293.27606125716284       293.4074924698356        293.53892368250837       293.27593182703947       293.4072280960824        293.53852436512534       293.27587175088894       293.4071053846378        293.5383390183867        293.275843866008         293.40704842702667       293.5382529880454        293.2758309229923        293.40702198964465       293.5382130562969
-7.386343189762606E-6     0                        0                        537.6636809769668        617.2209115213816        669.4509381283848        535.4308648679998        615.503563594289         667.9766898187016        530.2936125301969        611.3841867997785        665.0899157829675        519.9410126335665        603.3205588549301        658.2885371155108        497.4201172141065        585.6948554898886        643.2103085653326        455.27800430414885       548.5232654364847        610.8586090084264        394.77008537323803       479.26735074131557       545.2887468614233        345.38878011525776       398.24262555036177       447.81772932134555       318.2485910669508        344.2125597535176        370.5889998831914        304.99783685698867       317.28927649683084       329.6034844802729        298.55758749390407       304.5423197116095        310.3477591709575        295.7332690997883        298.41161855645595       301.09089365355845       294.2010025336576        295.73355963169126       297.04845513107915       293.6949105263464        294.2630333867162        295.1706954726027        293.4598391579322        293.78287695194723       294.1059147459623        293.3506932599682        293.5599357095221        293.7691781590761        293.30002458469806       293.45643995392743       293.61285532315674       293.27650462375397       293.4083981195562        293.54029161535834       293.2655872706125        293.386098351706         293.50660943279956       293.2605198078546        293.3757475605051        293.49097531315556       293.2581676835615        293.37094311524834       293.4837185469351        293.2570759206351        293.368713082071         293.48035024350685       293.2565691684114        293.36767799080354       293.4787868131957        293.2563339547008        293.36719754366106       293.47806113262135       293.2562247781321        293.36697453977956       293.47772430142703       293.25617410285025       293.3668710305314        293.4775679582125        293.2561505814664        293.3668229857909        293.4774953901155        293.2561396638067        293.36680068539715       293.47746170698764
-6.6146022076737895E-6    0                        0                        569.3026698885702        659.8702720562258        719.4851045484878        566.7650652501275        657.9118306947855        717.8008066699178        560.9288771186968        653.2160796772904        714.5021649250975        549.1695211337947        644.0239275260138        706.7333148470063        523.6123556326711        623.9425896214825        689.5178279283793        475.83134680856205       581.638717518742         652.6109109555854        407.49216940354785       502.9938404127643        577.9477315691471        351.85510717651294       411.4078200700099        467.4142917166174        321.33832946069526       350.5305736328061        380.2273456646807        306.452672011393         320.25974131248813       334.09940622512664       299.2207527149647        305.9407900844742        312.460732018136         296.04993479205314       299.0567474125911        302.064753588163         294.32981226727287       296.05020038828417       297.52625373372774       293.7616948121224        294.3994468497721        295.41828272747506       293.49781336841664       293.86044299878347       294.2230726291504        293.3752906139085        293.6101782119385        293.84506580996845       293.3184120019646        293.49399805081885       293.66958409967305       293.2920094388521        293.44006821854845       293.5881269982448        293.2797540561061        293.41503539391204       293.55031673171794       293.2740655254885        293.40341601066          293.5327664958315        293.271425124976         293.398022732937         293.524620340898         293.2701995556386        293.3955193870353        293.520839218432         293.26963069588516       293.394357435044         293.51908417420293       293.2693666543923        293.39381810432764       293.518269554263         293.269244097148         293.3935677691032        293.5178914410584        293.2691872111057        293.3934515737674        293.5177159364291        293.26916080694207       293.39339764066636       293.51763447439066       293.26914855121447       293.39337260713756       293.5175966630606
-6.4146270171740945E-6    0                        0                        581.1860559744349        675.966532635448         738.4164509978635        578.5321847667276        673.9156083281678        736.651454702853         572.4295420955723        668.9988173316992        733.1946273079906        560.1341400615233        659.37395195863          725.0541411440487        533.422206868499         638.3517845193261        707.0178109960368        483.50080011455015       594.0848628450858        668.362697277536         412.2191717273635        511.8634182081458        590.2180350326937        354.24830416131357       416.3005976732279        474.72540571121226       322.47967060554896       352.86855610500754       383.8014095434113        306.98962435755914       321.3568832219465        335.7612817213818        299.465410561879         306.4568888543047        313.240749833829         296.1667441987152        299.2947356175023        302.4240391731638        294.3773237489797        296.16699379926604       297.7024912712068        293.78632842444847       294.4497634114692        295.5095979603682        293.51182045037905       293.88905382587245       294.2662872013658        293.3843636639566        293.6287107941416        293.8730579243267        293.32519452397844       293.50785200477054       293.6905094855626        293.29772871530594       293.4517503891904        293.60577206307477       293.28497980104873       293.4257094780684        293.5664391550881        293.27906218978785       293.4136221751535        293.54818216051905       293.2763154586792        293.40801170676895       293.5397079548586        293.2750405348825        293.4054075495483        293.5357745642139        293.27444876678203       293.40419880501355       293.533948843245         293.27417409216855       293.4036377551064        293.5331014180443        293.2740465994651        293.4033773387232        293.53270807798134       293.2739874225854        293.4032564641273        293.5325255056693        293.273959955109         293.4032003591059        293.53244076310284       293.2739472058354        293.403174317461         293.5324014290866
-9.270434895560964E-6     0                        0                        479.2596523963948        538.83498160718          577.7207933693622        477.58172364220525       537.553868562377         576.6255943792827        473.7178700463127        534.4778954720002        574.482093931805         465.9292357593748        528.45746451921          569.4270895288594        448.95256915136895       515.2818389024394        558.2089187353411        417.12658995954587       487.42907330010644       534.0943655877444        371.07220451779085       435.29296493808596       485.0186019159046        333.3053781108961        373.7238992936821        411.4367189684954        312.4660346307759        332.404953359743         352.60608152334424       302.2731711098401        311.72935851346506       321.1936271455495        297.31515758360655       301.92300296345906       306.39115015034673       295.13993232841415       297.20291277739074       299.2663973784002        293.95963886926          295.1402398599914        296.153161594997         293.56977059756787       294.0074227905068        294.7067338988815        293.38868361744056       293.6375347863894        293.88638595533826       293.30460327411953       293.46579240423983       293.6269815343601        293.2655707711619        293.3860646739625        293.5065585767631        293.24745222501167       293.3490557598399        293.4506592946681        293.2390420688701        293.3318771880728        293.4247123072755        293.2351383616166        293.3239034817612        293.4126686019057        293.23332640860247       293.32020238937986       293.4070783701572        293.2324853717975        293.31848448892333       293.4044836060491        293.2320949965079        293.3176871089702        293.40327922143246       293.2319138002233        293.317316997724         293.4027201952247        293.23182969633103       293.31714520724574       293.40246071816046       293.2317906587565        293.3170654691572        293.4023402795581        293.23177253911814       293.31702845801254       293.40228437690695       293.2317641287268        293.31701127896036       293.402258429194
-8.417040763018919E-6     0                        0                        502.5465416826018        570.0248715493392        614.1768298255837        500.64881012864026       568.5714822449644        612.9321486172007        496.2803543575886        565.0833390924779        610.495540718785         487.47553268204933       558.2557659048309        604.7517244047568        468.29952462055587       543.3213677602415        592.0106170632431        432.3775339158111        511.7820109088737        564.6440984354947        380.56064708595295       452.8592408093772        509.0464272082895        338.150509742688         383.540171245723         425.9809751626149        314.7863153592698        337.13974745443653       359.81166523961895       303.3668040380356        313.96041247728147       324.5673185429759        297.81392631742153       302.9743898855731        307.97914664704246       295.37813766443037       297.6881553371956        299.9988316477985        294.05654081642933       295.3784437922566        296.5126003749103        293.6200112821954        294.11004433208916       294.8930097143142        293.4172507889365        293.69588604233365       293.97452129573094       293.32310719750706       293.50358848608437       293.68406977466174       293.27940303863915       293.41431843942087       293.5492338402025        293.25911594903323       293.37288006220626       293.4866441753793        293.24969921127655       293.35364544859675       293.457591685917         293.2453282831404        293.3447173977324        293.4441065123243        293.24329946387763       293.3405733347338        293.43784720558995       293.2423577663483        293.33864982485915       293.43494188337          293.2419206684185        293.3377570093236        293.43359335022865       293.2417177853901        293.3373426007729        293.43296741615563       293.24162361539976       293.33715024930046       293.4326768832013        293.2415799055557        293.3370609676425        293.43254202972935       293.24155961724176       293.3370195267649        293.432479436288         293.24155020024034       293.3370002916128        293.4324503829853
-7.936757855079336E-6     0                        0                        518.9627792625317        592.084454031331         640.0099931747748        516.9084774652596        590.5077538756274        638.6580770810441        512.1807878572439        586.7247195485256        636.0111883338437        502.65273019257535       579.319698542119         629.7733606712011        481.9136475801305        563.1279655819685        615.9405110734584        443.0847940955373        528.9571465558582        586.24516369222          387.20512685133747       465.205900007068         525.9884978020491        341.5355527120351        390.41514841696073       436.19093985918875       316.4055615360938        340.4474248817194        364.8515272208393        304.1296270767578        315.517269722492         326.92260529630107       298.16173559042664       303.70770205319104       309.08692490227116       295.5442327691368        298.0265186868161        300.5095873820538        294.1241057417531        295.5445318957103        296.7632202581917        293.6550417567124        294.18159751135437       295.02288401639777       293.4371694302214        293.7365718137599        294.0359741972984        293.3360092431112        293.52994217093703       293.72387509876296       293.28904777209306       293.4340187442188        293.57898971634444       293.26724866492214       293.38949192266057       293.511735180399         293.2571300876561        293.36882373295543       293.4805173782548        293.2524333894897        293.3592302648282        293.4660271401667        293.25025336009816       293.3547773403006        293.459301320503         293.24924147681264       293.3527104691305        293.4561794614483        293.2487718014907        293.3517511110741        293.4547304206575        293.2485537973656        293.3513058161993        293.4540578350329        293.2484526087816        293.35109912856046       293.45374564833935       293.2484056411943        293.35100319264245       293.4536007440905        293.2483838407699        293.3509586631307        293.45353348549145       293.248373721909         293.3509379943616        293.4535022668142
-9.485718993271238E-6     0                        0                        473.56054767011875       531.2074144355715        568.8093572298659        471.9362864710684        529.9683144390315        567.7505901026573        468.195654471995         526.9928701649898        565.6785230126039        460.65518350477646       521.1693026410713        560.7914069565621        444.2157991316569        508.42272599790516       549.9444855210951        413.3907781039257        481.4696416593574        526.6228896884527        368.746656433548         430.99106120646815       479.13843747099406       332.1172769838148        371.31807184396354       407.8739260026053        311.8969282439469        331.24388715916996       350.83959021018535       302.00490095125303       311.1821278487412        320.3662135902121        297.1928019000544        301.6650924124984        306.0016214917796        295.0814957876223        297.08387419724176       299.0867201083919        293.9358666749089        295.0818031800556        296.0649833714343        293.55744544878024       293.9822474611002        294.6610357795656        293.38167546127823       293.6232199382126        293.864764415147         293.30006385504413       293.45652019441          293.61297653377574       293.262177412391         293.37913340496505       293.4960893975389        293.24459085779233       293.3432111358665        293.44183141394063       293.2364276383237        293.3265369565174        293.4166462747111        293.23263855065744       293.3187973719746        293.4049561932917        293.2308797997171        293.315204950056         293.39953010039494       293.23006345720785       293.3135374901247        293.39701152304144       293.22968454401234       293.3127635226248        293.39584250123727       293.22950866796424       293.31240427848445       293.39529988900455       293.2294270335079        293.3122375320715        293.39504803063517       293.229389142144         293.3121601352311        293.3949311283182        293.2293715545297        293.3121242107976        293.3948768670655        293.22936339108196       293.31210753615204       293.39485168122224
-9.454894737202247E-6     0                        0                        474.2474468175059        532.1238287987751        569.8779836868788        472.61678199057263       530.8797414627786        568.8149030214038        468.86143860160337       527.8923570841173        566.7343794848837        461.2913316999986        522.0454071057227        561.8273800074726        444.78769185813917       509.2478288847033        550.9364633391313        413.842791124448         482.1876225419411        527.5207869090466        369.02870511912806       431.5110198745085        479.84701868794343       332.2616804198248        371.60982115679553       408.3050503252693        311.96616930512835       331.38501581953705       351.0540701651211        302.03755562661115       311.2487121845164        320.46684683357864       297.20769891553675       301.6964878408492        306.04903107125864       295.088611097843         297.0983679039799        299.10859603040285       293.9387613149166        295.08891875688454       296.0757204241464        293.5589462286233        293.9853129516359        294.6666005235709        293.38252881370113       293.62496299445627       293.86739717521147       293.3006166001677        293.4576492306662        293.6146818611647        293.2625906068224        293.3799773952096        293.4973641835967        293.24493927397646       293.3439228101726        293.44290634636883       293.2367459861282        293.3271872132028        293.4176284402774        293.23294294174553       293.3194191206946        293.40589529964365       293.2311777126257        293.3158134664577        293.4004492202897        293.2303583632021        293.31413986460825       293.39792136601443       293.22997805431845       293.31336304627825       293.39674803823806       293.22980153044887       293.3130024788988        293.3962034273487        293.22971959530025       293.31283511829247       293.3959506412848        293.2296815643674        293.31275743636877       293.3958333083701        293.2296639119709        293.3127213796113        293.39577884725156       293.22965571845396       293.3127046435464        293.39575356863884
-9.999999999999999E-6     0                        0                        462.10011909566254       515.9176861049295        550.9800772985166        460.58269791854127       514.7617963552414        549.9932785197802        457.0875151004351        511.9855643188108        548.0623012841809        450.04149882945956       506.55211658240427       543.5069261122062        434.6741717049364        494.6564653514971        533.3940341567424        405.84925915441977       469.4906362202413        511.64210684287514       364.0408727273024        422.3159169739953        467.31625883394275       329.70800733979985       366.4504400029949        400.6809202674907        310.74168989620875       328.88925484073104       347.26114319428234       301.46008068762785       310.07121509359735       318.6872187884201        296.9442556868922        301.1412817984547        305.2106260429847        294.96278184703925       296.84205690647445       298.7217357541964        293.88757164472463       294.9630847913029        295.88584320773634       293.53240599391665       293.9311019101654        294.568191944412         293.3674378770158        293.5941382722108        293.8208386674058        293.2908416918898        293.4376830195182        293.58452434714667       293.25528355426604       293.3650520220538        293.47482048984165       293.2387777791084        293.3313373512147        293.42389692332097       293.23111622937773       293.31568788161843       293.400259533859         293.22755999969974       293.3084239324044        293.38928786510905       293.22590933262177       293.3050522823983        293.3841952321748        293.22514315836094       293.3034872960451        293.3818314337293        293.22478753123875       293.30276089263873       293.3807342540387        293.22462246363597       293.30242372581034       293.3802249879847        293.2245458460171        293.3022672267813        293.3799886075454        293.2245102832634        293.3021945863558        293.37987888944826       293.22449377649417       293.3021608696547        293.3798279628152        293.2244861147303        293.30214521974784       293.37980432476536